V -t * -v 1.0a5 -a 0
A -t * -n 1 -p 0 -o 0x7fffffff -c 30 -a 1
A -t * -h 1 -m 1073741823 -s 0
c -t * -i 1 -n Red
c -t * -i 2 -n Blue
n -t * -a 4 -s 4 -S UP -v circle -c black -i black
n -t * -a 0 -s 0 -S UP -v circle -c black -i black
n -t * -a 1 -s 1 -S UP -v circle -c black -i black
n -t * -a 2 -s 2 -S UP -v circle -c black -i black
n -t * -a 3 -s 3 -S UP -v circle -c black -i black
l -t * -s 4 -d 0 -S UP -r 2000000 -D 0.10000000000000001 -c black
l -t * -s 0 -d 1 -S UP -r 2000000 -D 0.10000000000000001 -c black
l -t * -s 1 -d 2 -S UP -r 2000000 -D 0.10000000000000001 -c black
l -t * -s 3 -d 1 -S UP -r 2000000 -D 0.10000000000000001 -c black
+ -t 1 -s 4 -d 0 -p tcp -e 40 -c 1 -i 0 -a 1 -x {4.0 2.0 0 ------- null}
- -t 1 -s 4 -d 0 -p tcp -e 40 -c 1 -i 0 -a 1 -x {4.0 2.0 0 ------- null}
h -t 1 -s 4 -d 0 -p tcp -e 40 -c 1 -i 0 -a 1 -x {4.0 2.0 -1 ------- null}
+ -t 1 -s 3 -d 1 -p tcp -e 40 -c 2 -i 1 -a 2 -x {3.0 2.1 0 ------- null}
- -t 1 -s 3 -d 1 -p tcp -e 40 -c 2 -i 1 -a 2 -x {3.0 2.1 0 ------- null}
h -t 1 -s 3 -d 1 -p tcp -e 40 -c 2 -i 1 -a 2 -x {3.0 2.1 -1 ------- null}
r -t 1.10016 -s 4 -d 0 -p tcp -e 40 -c 1 -i 0 -a 1 -x {4.0 2.0 0 ------- null}
+ -t 1.10016 -s 0 -d 1 -p tcp -e 40 -c 1 -i 0 -a 1 -x {4.0 2.0 0 ------- null}
- -t 1.10016 -s 0 -d 1 -p tcp -e 40 -c 1 -i 0 -a 1 -x {4.0 2.0 0 ------- null}
h -t 1.10016 -s 0 -d 1 -p tcp -e 40 -c 1 -i 0 -a 1 -x {4.0 2.0 -1 ------- null}
r -t 1.10016 -s 3 -d 1 -p tcp -e 40 -c 2 -i 1 -a 2 -x {3.0 2.1 0 ------- null}
+ -t 1.10016 -s 1 -d 2 -p tcp -e 40 -c 2 -i 1 -a 2 -x {3.0 2.1 0 ------- null}
- -t 1.10016 -s 1 -d 2 -p tcp -e 40 -c 2 -i 1 -a 2 -x {3.0 2.1 0 ------- null}
h -t 1.10016 -s 1 -d 2 -p tcp -e 40 -c 2 -i 1 -a 2 -x {3.0 2.1 -1 ------- null}
r -t 1.20032 -s 0 -d 1 -p tcp -e 40 -c 1 -i 0 -a 1 -x {4.0 2.0 0 ------- null}
+ -t 1.20032 -s 1 -d 2 -p tcp -e 40 -c 1 -i 0 -a 1 -x {4.0 2.0 0 ------- null}
- -t 1.20032 -s 1 -d 2 -p tcp -e 40 -c 1 -i 0 -a 1 -x {4.0 2.0 0 ------- null}
h -t 1.20032 -s 1 -d 2 -p tcp -e 40 -c 1 -i 0 -a 1 -x {4.0 2.0 -1 ------- null}
r -t 1.20032 -s 1 -d 2 -p tcp -e 40 -c 2 -i 1 -a 2 -x {3.0 2.1 0 ------- null}
+ -t 1.20032 -s 2 -d 1 -p ack -e 40 -c 2 -i 2 -a 2 -x {2.1 3.0 0 ------- null}
- -t 1.20032 -s 2 -d 1 -p ack -e 40 -c 2 -i 2 -a 2 -x {2.1 3.0 0 ------- null}
h -t 1.20032 -s 2 -d 1 -p ack -e 40 -c 2 -i 2 -a 2 -x {2.1 3.0 -1 ------- null}
r -t 1.30048 -s 1 -d 2 -p tcp -e 40 -c 1 -i 0 -a 1 -x {4.0 2.0 0 ------- null}
+ -t 1.30048 -s 2 -d 1 -p ack -e 40 -c 1 -i 3 -a 1 -x {2.0 4.0 0 ------- null}
- -t 1.30048 -s 2 -d 1 -p ack -e 40 -c 1 -i 3 -a 1 -x {2.0 4.0 0 ------- null}
h -t 1.30048 -s 2 -d 1 -p ack -e 40 -c 1 -i 3 -a 1 -x {2.0 4.0 -1 ------- null}
r -t 1.30048 -s 2 -d 1 -p ack -e 40 -c 2 -i 2 -a 2 -x {2.1 3.0 0 ------- null}
+ -t 1.30048 -s 1 -d 3 -p ack -e 40 -c 2 -i 2 -a 2 -x {2.1 3.0 0 ------- null}
- -t 1.30048 -s 1 -d 3 -p ack -e 40 -c 2 -i 2 -a 2 -x {2.1 3.0 0 ------- null}
h -t 1.30048 -s 1 -d 3 -p ack -e 40 -c 2 -i 2 -a 2 -x {2.1 3.0 -1 ------- null}
r -t 1.40064 -s 2 -d 1 -p ack -e 40 -c 1 -i 3 -a 1 -x {2.0 4.0 0 ------- null}
+ -t 1.40064 -s 1 -d 0 -p ack -e 40 -c 1 -i 3 -a 1 -x {2.0 4.0 0 ------- null}
- -t 1.40064 -s 1 -d 0 -p ack -e 40 -c 1 -i 3 -a 1 -x {2.0 4.0 0 ------- null}
h -t 1.40064 -s 1 -d 0 -p ack -e 40 -c 1 -i 3 -a 1 -x {2.0 4.0 -1 ------- null}
r -t 1.40064 -s 1 -d 3 -p ack -e 40 -c 2 -i 2 -a 2 -x {2.1 3.0 0 ------- null}
+ -t 1.40064 -s 3 -d 1 -p tcp -e 1040 -c 2 -i 4 -a 2 -x {3.0 2.1 1 ------- null}
- -t 1.40064 -s 3 -d 1 -p tcp -e 1040 -c 2 -i 4 -a 2 -x {3.0 2.1 1 ------- null}
h -t 1.40064 -s 3 -d 1 -p tcp -e 1040 -c 2 -i 4 -a 2 -x {3.0 2.1 -1 ------- null}
+ -t 1.40064 -s 3 -d 1 -p tcp -e 1040 -c 2 -i 5 -a 2 -x {3.0 2.1 2 ------- null}
- -t 1.4048 -s 3 -d 1 -p tcp -e 1040 -c 2 -i 5 -a 2 -x {3.0 2.1 2 ------- null}
h -t 1.4048 -s 3 -d 1 -p tcp -e 1040 -c 2 -i 5 -a 2 -x {3.0 2.1 -1 ------- null}
r -t 1.5008 -s 1 -d 0 -p ack -e 40 -c 1 -i 3 -a 1 -x {2.0 4.0 0 ------- null}
+ -t 1.5008 -s 0 -d 4 -p ack -e 40 -c 1 -i 3 -a 1 -x {2.0 4.0 0 ------- null}
- -t 1.5008 -s 0 -d 4 -p ack -e 40 -c 1 -i 3 -a 1 -x {2.0 4.0 0 ------- null}
h -t 1.5008 -s 0 -d 4 -p ack -e 40 -c 1 -i 3 -a 1 -x {2.0 4.0 -1 ------- null}
r -t 1.5048 -s 3 -d 1 -p tcp -e 1040 -c 2 -i 4 -a 2 -x {3.0 2.1 1 ------- null}
+ -t 1.5048 -s 1 -d 2 -p tcp -e 1040 -c 2 -i 4 -a 2 -x {3.0 2.1 1 ------- null}
- -t 1.5048 -s 1 -d 2 -p tcp -e 1040 -c 2 -i 4 -a 2 -x {3.0 2.1 1 ------- null}
h -t 1.5048 -s 1 -d 2 -p tcp -e 1040 -c 2 -i 4 -a 2 -x {3.0 2.1 -1 ------- null}
r -t 1.50896 -s 3 -d 1 -p tcp -e 1040 -c 2 -i 5 -a 2 -x {3.0 2.1 2 ------- null}
+ -t 1.50896 -s 1 -d 2 -p tcp -e 1040 -c 2 -i 5 -a 2 -x {3.0 2.1 2 ------- null}
- -t 1.50896 -s 1 -d 2 -p tcp -e 1040 -c 2 -i 5 -a 2 -x {3.0 2.1 2 ------- null}
h -t 1.50896 -s 1 -d 2 -p tcp -e 1040 -c 2 -i 5 -a 2 -x {3.0 2.1 -1 ------- null}
r -t 1.60096 -s 0 -d 4 -p ack -e 40 -c 1 -i 3 -a 1 -x {2.0 4.0 0 ------- null}
+ -t 1.60096 -s 4 -d 0 -p tcp -e 1040 -c 1 -i 6 -a 1 -x {4.0 2.0 1 ------- null}
- -t 1.60096 -s 4 -d 0 -p tcp -e 1040 -c 1 -i 6 -a 1 -x {4.0 2.0 1 ------- null}
h -t 1.60096 -s 4 -d 0 -p tcp -e 1040 -c 1 -i 6 -a 1 -x {4.0 2.0 -1 ------- null}
+ -t 1.60096 -s 4 -d 0 -p tcp -e 1040 -c 1 -i 7 -a 1 -x {4.0 2.0 2 ------- null}
- -t 1.60512 -s 4 -d 0 -p tcp -e 1040 -c 1 -i 7 -a 1 -x {4.0 2.0 2 ------- null}
h -t 1.60512 -s 4 -d 0 -p tcp -e 1040 -c 1 -i 7 -a 1 -x {4.0 2.0 -1 ------- null}
r -t 1.60896 -s 1 -d 2 -p tcp -e 1040 -c 2 -i 4 -a 2 -x {3.0 2.1 1 ------- null}
+ -t 1.60896 -s 2 -d 1 -p ack -e 40 -c 2 -i 8 -a 2 -x {2.1 3.0 1 ------- null}
- -t 1.60896 -s 2 -d 1 -p ack -e 40 -c 2 -i 8 -a 2 -x {2.1 3.0 1 ------- null}
h -t 1.60896 -s 2 -d 1 -p ack -e 40 -c 2 -i 8 -a 2 -x {2.1 3.0 -1 ------- null}
r -t 1.61312 -s 1 -d 2 -p tcp -e 1040 -c 2 -i 5 -a 2 -x {3.0 2.1 2 ------- null}
+ -t 1.61312 -s 2 -d 1 -p ack -e 40 -c 2 -i 9 -a 2 -x {2.1 3.0 2 ------- null}
- -t 1.61312 -s 2 -d 1 -p ack -e 40 -c 2 -i 9 -a 2 -x {2.1 3.0 2 ------- null}
h -t 1.61312 -s 2 -d 1 -p ack -e 40 -c 2 -i 9 -a 2 -x {2.1 3.0 -1 ------- null}
r -t 1.70512 -s 4 -d 0 -p tcp -e 1040 -c 1 -i 6 -a 1 -x {4.0 2.0 1 ------- null}
+ -t 1.70512 -s 0 -d 1 -p tcp -e 1040 -c 1 -i 6 -a 1 -x {4.0 2.0 1 ------- null}
- -t 1.70512 -s 0 -d 1 -p tcp -e 1040 -c 1 -i 6 -a 1 -x {4.0 2.0 1 ------- null}
h -t 1.70512 -s 0 -d 1 -p tcp -e 1040 -c 1 -i 6 -a 1 -x {4.0 2.0 -1 ------- null}
r -t 1.70912 -s 2 -d 1 -p ack -e 40 -c 2 -i 8 -a 2 -x {2.1 3.0 1 ------- null}
+ -t 1.70912 -s 1 -d 3 -p ack -e 40 -c 2 -i 8 -a 2 -x {2.1 3.0 1 ------- null}
- -t 1.70912 -s 1 -d 3 -p ack -e 40 -c 2 -i 8 -a 2 -x {2.1 3.0 1 ------- null}
h -t 1.70912 -s 1 -d 3 -p ack -e 40 -c 2 -i 8 -a 2 -x {2.1 3.0 -1 ------- null}
r -t 1.70928 -s 4 -d 0 -p tcp -e 1040 -c 1 -i 7 -a 1 -x {4.0 2.0 2 ------- null}
+ -t 1.70928 -s 0 -d 1 -p tcp -e 1040 -c 1 -i 7 -a 1 -x {4.0 2.0 2 ------- null}
- -t 1.70928 -s 0 -d 1 -p tcp -e 1040 -c 1 -i 7 -a 1 -x {4.0 2.0 2 ------- null}
h -t 1.70928 -s 0 -d 1 -p tcp -e 1040 -c 1 -i 7 -a 1 -x {4.0 2.0 -1 ------- null}
r -t 1.71328 -s 2 -d 1 -p ack -e 40 -c 2 -i 9 -a 2 -x {2.1 3.0 2 ------- null}
+ -t 1.71328 -s 1 -d 3 -p ack -e 40 -c 2 -i 9 -a 2 -x {2.1 3.0 2 ------- null}
- -t 1.71328 -s 1 -d 3 -p ack -e 40 -c 2 -i 9 -a 2 -x {2.1 3.0 2 ------- null}
h -t 1.71328 -s 1 -d 3 -p ack -e 40 -c 2 -i 9 -a 2 -x {2.1 3.0 -1 ------- null}
r -t 1.80928 -s 0 -d 1 -p tcp -e 1040 -c 1 -i 6 -a 1 -x {4.0 2.0 1 ------- null}
+ -t 1.80928 -s 1 -d 2 -p tcp -e 1040 -c 1 -i 6 -a 1 -x {4.0 2.0 1 ------- null}
- -t 1.80928 -s 1 -d 2 -p tcp -e 1040 -c 1 -i 6 -a 1 -x {4.0 2.0 1 ------- null}
h -t 1.80928 -s 1 -d 2 -p tcp -e 1040 -c 1 -i 6 -a 1 -x {4.0 2.0 -1 ------- null}
r -t 1.80928 -s 1 -d 3 -p ack -e 40 -c 2 -i 8 -a 2 -x {2.1 3.0 1 ------- null}
+ -t 1.80928 -s 3 -d 1 -p tcp -e 1040 -c 2 -i 10 -a 2 -x {3.0 2.1 3 ------- null}
- -t 1.80928 -s 3 -d 1 -p tcp -e 1040 -c 2 -i 10 -a 2 -x {3.0 2.1 3 ------- null}
h -t 1.80928 -s 3 -d 1 -p tcp -e 1040 -c 2 -i 10 -a 2 -x {3.0 2.1 -1 ------- null}
+ -t 1.80928 -s 3 -d 1 -p tcp -e 1040 -c 2 -i 11 -a 2 -x {3.0 2.1 4 ------- null}
r -t 1.81344 -s 0 -d 1 -p tcp -e 1040 -c 1 -i 7 -a 1 -x {4.0 2.0 2 ------- null}
+ -t 1.81344 -s 1 -d 2 -p tcp -e 1040 -c 1 -i 7 -a 1 -x {4.0 2.0 2 ------- null}
r -t 1.81344 -s 1 -d 3 -p ack -e 40 -c 2 -i 9 -a 2 -x {2.1 3.0 2 ------- null}
+ -t 1.81344 -s 3 -d 1 -p tcp -e 1040 -c 2 -i 12 -a 2 -x {3.0 2.1 5 ------- null}
+ -t 1.81344 -s 3 -d 1 -p tcp -e 1040 -c 2 -i 13 -a 2 -x {3.0 2.1 6 ------- null}
- -t 1.81344 -s 1 -d 2 -p tcp -e 1040 -c 1 -i 7 -a 1 -x {4.0 2.0 2 ------- null}
h -t 1.81344 -s 1 -d 2 -p tcp -e 1040 -c 1 -i 7 -a 1 -x {4.0 2.0 -1 ------- null}
- -t 1.81344 -s 3 -d 1 -p tcp -e 1040 -c 2 -i 11 -a 2 -x {3.0 2.1 4 ------- null}
h -t 1.81344 -s 3 -d 1 -p tcp -e 1040 -c 2 -i 11 -a 2 -x {3.0 2.1 -1 ------- null}
- -t 1.8176 -s 3 -d 1 -p tcp -e 1040 -c 2 -i 12 -a 2 -x {3.0 2.1 5 ------- null}
h -t 1.8176 -s 3 -d 1 -p tcp -e 1040 -c 2 -i 12 -a 2 -x {3.0 2.1 -1 ------- null}
- -t 1.82176 -s 3 -d 1 -p tcp -e 1040 -c 2 -i 13 -a 2 -x {3.0 2.1 6 ------- null}
h -t 1.82176 -s 3 -d 1 -p tcp -e 1040 -c 2 -i 13 -a 2 -x {3.0 2.1 -1 ------- null}
r -t 1.91344 -s 1 -d 2 -p tcp -e 1040 -c 1 -i 6 -a 1 -x {4.0 2.0 1 ------- null}
+ -t 1.91344 -s 2 -d 1 -p ack -e 40 -c 1 -i 14 -a 1 -x {2.0 4.0 1 ------- null}
- -t 1.91344 -s 2 -d 1 -p ack -e 40 -c 1 -i 14 -a 1 -x {2.0 4.0 1 ------- null}
h -t 1.91344 -s 2 -d 1 -p ack -e 40 -c 1 -i 14 -a 1 -x {2.0 4.0 -1 ------- null}
r -t 1.91344 -s 3 -d 1 -p tcp -e 1040 -c 2 -i 10 -a 2 -x {3.0 2.1 3 ------- null}
+ -t 1.91344 -s 1 -d 2 -p tcp -e 1040 -c 2 -i 10 -a 2 -x {3.0 2.1 3 ------- null}
- -t 1.91344 -s 1 -d 2 -p tcp -e 1040 -c 2 -i 10 -a 2 -x {3.0 2.1 3 ------- null}
h -t 1.91344 -s 1 -d 2 -p tcp -e 1040 -c 2 -i 10 -a 2 -x {3.0 2.1 -1 ------- null}
r -t 1.9176 -s 1 -d 2 -p tcp -e 1040 -c 1 -i 7 -a 1 -x {4.0 2.0 2 ------- null}
+ -t 1.9176 -s 2 -d 1 -p ack -e 40 -c 1 -i 15 -a 1 -x {2.0 4.0 2 ------- null}
- -t 1.9176 -s 2 -d 1 -p ack -e 40 -c 1 -i 15 -a 1 -x {2.0 4.0 2 ------- null}
h -t 1.9176 -s 2 -d 1 -p ack -e 40 -c 1 -i 15 -a 1 -x {2.0 4.0 -1 ------- null}
r -t 1.9176 -s 3 -d 1 -p tcp -e 1040 -c 2 -i 11 -a 2 -x {3.0 2.1 4 ------- null}
+ -t 1.9176 -s 1 -d 2 -p tcp -e 1040 -c 2 -i 11 -a 2 -x {3.0 2.1 4 ------- null}
- -t 1.9176 -s 1 -d 2 -p tcp -e 1040 -c 2 -i 11 -a 2 -x {3.0 2.1 4 ------- null}
h -t 1.9176 -s 1 -d 2 -p tcp -e 1040 -c 2 -i 11 -a 2 -x {3.0 2.1 -1 ------- null}
r -t 1.92176 -s 3 -d 1 -p tcp -e 1040 -c 2 -i 12 -a 2 -x {3.0 2.1 5 ------- null}
+ -t 1.92176 -s 1 -d 2 -p tcp -e 1040 -c 2 -i 12 -a 2 -x {3.0 2.1 5 ------- null}
- -t 1.92176 -s 1 -d 2 -p tcp -e 1040 -c 2 -i 12 -a 2 -x {3.0 2.1 5 ------- null}
h -t 1.92176 -s 1 -d 2 -p tcp -e 1040 -c 2 -i 12 -a 2 -x {3.0 2.1 -1 ------- null}
r -t 1.92592 -s 3 -d 1 -p tcp -e 1040 -c 2 -i 13 -a 2 -x {3.0 2.1 6 ------- null}
+ -t 1.92592 -s 1 -d 2 -p tcp -e 1040 -c 2 -i 13 -a 2 -x {3.0 2.1 6 ------- null}
- -t 1.92592 -s 1 -d 2 -p tcp -e 1040 -c 2 -i 13 -a 2 -x {3.0 2.1 6 ------- null}
h -t 1.92592 -s 1 -d 2 -p tcp -e 1040 -c 2 -i 13 -a 2 -x {3.0 2.1 -1 ------- null}
r -t 2.0136 -s 2 -d 1 -p ack -e 40 -c 1 -i 14 -a 1 -x {2.0 4.0 1 ------- null}
+ -t 2.0136 -s 1 -d 0 -p ack -e 40 -c 1 -i 14 -a 1 -x {2.0 4.0 1 ------- null}
- -t 2.0136 -s 1 -d 0 -p ack -e 40 -c 1 -i 14 -a 1 -x {2.0 4.0 1 ------- null}
h -t 2.0136 -s 1 -d 0 -p ack -e 40 -c 1 -i 14 -a 1 -x {2.0 4.0 -1 ------- null}
r -t 2.0176 -s 1 -d 2 -p tcp -e 1040 -c 2 -i 10 -a 2 -x {3.0 2.1 3 ------- null}
+ -t 2.0176 -s 2 -d 1 -p ack -e 40 -c 2 -i 16 -a 2 -x {2.1 3.0 3 ------- null}
- -t 2.0176 -s 2 -d 1 -p ack -e 40 -c 2 -i 16 -a 2 -x {2.1 3.0 3 ------- null}
h -t 2.0176 -s 2 -d 1 -p ack -e 40 -c 2 -i 16 -a 2 -x {2.1 3.0 -1 ------- null}
r -t 2.01776 -s 2 -d 1 -p ack -e 40 -c 1 -i 15 -a 1 -x {2.0 4.0 2 ------- null}
+ -t 2.01776 -s 1 -d 0 -p ack -e 40 -c 1 -i 15 -a 1 -x {2.0 4.0 2 ------- null}
- -t 2.01776 -s 1 -d 0 -p ack -e 40 -c 1 -i 15 -a 1 -x {2.0 4.0 2 ------- null}
h -t 2.01776 -s 1 -d 0 -p ack -e 40 -c 1 -i 15 -a 1 -x {2.0 4.0 -1 ------- null}
r -t 2.02176 -s 1 -d 2 -p tcp -e 1040 -c 2 -i 11 -a 2 -x {3.0 2.1 4 ------- null}
+ -t 2.02176 -s 2 -d 1 -p ack -e 40 -c 2 -i 17 -a 2 -x {2.1 3.0 4 ------- null}
- -t 2.02176 -s 2 -d 1 -p ack -e 40 -c 2 -i 17 -a 2 -x {2.1 3.0 4 ------- null}
h -t 2.02176 -s 2 -d 1 -p ack -e 40 -c 2 -i 17 -a 2 -x {2.1 3.0 -1 ------- null}
r -t 2.02592 -s 1 -d 2 -p tcp -e 1040 -c 2 -i 12 -a 2 -x {3.0 2.1 5 ------- null}
+ -t 2.02592 -s 2 -d 1 -p ack -e 40 -c 2 -i 18 -a 2 -x {2.1 3.0 5 ------- null}
- -t 2.02592 -s 2 -d 1 -p ack -e 40 -c 2 -i 18 -a 2 -x {2.1 3.0 5 ------- null}
h -t 2.02592 -s 2 -d 1 -p ack -e 40 -c 2 -i 18 -a 2 -x {2.1 3.0 -1 ------- null}
r -t 2.03008 -s 1 -d 2 -p tcp -e 1040 -c 2 -i 13 -a 2 -x {3.0 2.1 6 ------- null}
+ -t 2.03008 -s 2 -d 1 -p ack -e 40 -c 2 -i 19 -a 2 -x {2.1 3.0 6 ------- null}
- -t 2.03008 -s 2 -d 1 -p ack -e 40 -c 2 -i 19 -a 2 -x {2.1 3.0 6 ------- null}
h -t 2.03008 -s 2 -d 1 -p ack -e 40 -c 2 -i 19 -a 2 -x {2.1 3.0 -1 ------- null}
r -t 2.11376 -s 1 -d 0 -p ack -e 40 -c 1 -i 14 -a 1 -x {2.0 4.0 1 ------- null}
+ -t 2.11376 -s 0 -d 4 -p ack -e 40 -c 1 -i 14 -a 1 -x {2.0 4.0 1 ------- null}
- -t 2.11376 -s 0 -d 4 -p ack -e 40 -c 1 -i 14 -a 1 -x {2.0 4.0 1 ------- null}
h -t 2.11376 -s 0 -d 4 -p ack -e 40 -c 1 -i 14 -a 1 -x {2.0 4.0 -1 ------- null}
r -t 2.11776 -s 2 -d 1 -p ack -e 40 -c 2 -i 16 -a 2 -x {2.1 3.0 3 ------- null}
+ -t 2.11776 -s 1 -d 3 -p ack -e 40 -c 2 -i 16 -a 2 -x {2.1 3.0 3 ------- null}
- -t 2.11776 -s 1 -d 3 -p ack -e 40 -c 2 -i 16 -a 2 -x {2.1 3.0 3 ------- null}
h -t 2.11776 -s 1 -d 3 -p ack -e 40 -c 2 -i 16 -a 2 -x {2.1 3.0 -1 ------- null}
r -t 2.11792 -s 1 -d 0 -p ack -e 40 -c 1 -i 15 -a 1 -x {2.0 4.0 2 ------- null}
+ -t 2.11792 -s 0 -d 4 -p ack -e 40 -c 1 -i 15 -a 1 -x {2.0 4.0 2 ------- null}
- -t 2.11792 -s 0 -d 4 -p ack -e 40 -c 1 -i 15 -a 1 -x {2.0 4.0 2 ------- null}
h -t 2.11792 -s 0 -d 4 -p ack -e 40 -c 1 -i 15 -a 1 -x {2.0 4.0 -1 ------- null}
r -t 2.12192 -s 2 -d 1 -p ack -e 40 -c 2 -i 17 -a 2 -x {2.1 3.0 4 ------- null}
+ -t 2.12192 -s 1 -d 3 -p ack -e 40 -c 2 -i 17 -a 2 -x {2.1 3.0 4 ------- null}
- -t 2.12192 -s 1 -d 3 -p ack -e 40 -c 2 -i 17 -a 2 -x {2.1 3.0 4 ------- null}
h -t 2.12192 -s 1 -d 3 -p ack -e 40 -c 2 -i 17 -a 2 -x {2.1 3.0 -1 ------- null}
r -t 2.12608 -s 2 -d 1 -p ack -e 40 -c 2 -i 18 -a 2 -x {2.1 3.0 5 ------- null}
+ -t 2.12608 -s 1 -d 3 -p ack -e 40 -c 2 -i 18 -a 2 -x {2.1 3.0 5 ------- null}
- -t 2.12608 -s 1 -d 3 -p ack -e 40 -c 2 -i 18 -a 2 -x {2.1 3.0 5 ------- null}
h -t 2.12608 -s 1 -d 3 -p ack -e 40 -c 2 -i 18 -a 2 -x {2.1 3.0 -1 ------- null}
r -t 2.13024 -s 2 -d 1 -p ack -e 40 -c 2 -i 19 -a 2 -x {2.1 3.0 6 ------- null}
+ -t 2.13024 -s 1 -d 3 -p ack -e 40 -c 2 -i 19 -a 2 -x {2.1 3.0 6 ------- null}
- -t 2.13024 -s 1 -d 3 -p ack -e 40 -c 2 -i 19 -a 2 -x {2.1 3.0 6 ------- null}
h -t 2.13024 -s 1 -d 3 -p ack -e 40 -c 2 -i 19 -a 2 -x {2.1 3.0 -1 ------- null}
r -t 2.21392 -s 0 -d 4 -p ack -e 40 -c 1 -i 14 -a 1 -x {2.0 4.0 1 ------- null}
+ -t 2.21392 -s 4 -d 0 -p tcp -e 1040 -c 1 -i 20 -a 1 -x {4.0 2.0 3 ------- null}
- -t 2.21392 -s 4 -d 0 -p tcp -e 1040 -c 1 -i 20 -a 1 -x {4.0 2.0 3 ------- null}
h -t 2.21392 -s 4 -d 0 -p tcp -e 1040 -c 1 -i 20 -a 1 -x {4.0 2.0 -1 ------- null}
+ -t 2.21392 -s 4 -d 0 -p tcp -e 1040 -c 1 -i 21 -a 1 -x {4.0 2.0 4 ------- null}
r -t 2.21792 -s 1 -d 3 -p ack -e 40 -c 2 -i 16 -a 2 -x {2.1 3.0 3 ------- null}
+ -t 2.21792 -s 3 -d 1 -p tcp -e 1040 -c 2 -i 22 -a 2 -x {3.0 2.1 7 ------- null}
- -t 2.21792 -s 3 -d 1 -p tcp -e 1040 -c 2 -i 22 -a 2 -x {3.0 2.1 7 ------- null}
h -t 2.21792 -s 3 -d 1 -p tcp -e 1040 -c 2 -i 22 -a 2 -x {3.0 2.1 -1 ------- null}
+ -t 2.21792 -s 3 -d 1 -p tcp -e 1040 -c 2 -i 23 -a 2 -x {3.0 2.1 8 ------- null}
r -t 2.21808 -s 0 -d 4 -p ack -e 40 -c 1 -i 15 -a 1 -x {2.0 4.0 2 ------- null}
+ -t 2.21808 -s 4 -d 0 -p tcp -e 1040 -c 1 -i 24 -a 1 -x {4.0 2.0 5 ------- null}
+ -t 2.21808 -s 4 -d 0 -p tcp -e 1040 -c 1 -i 25 -a 1 -x {4.0 2.0 6 ------- null}
- -t 2.21808 -s 4 -d 0 -p tcp -e 1040 -c 1 -i 21 -a 1 -x {4.0 2.0 4 ------- null}
h -t 2.21808 -s 4 -d 0 -p tcp -e 1040 -c 1 -i 21 -a 1 -x {4.0 2.0 -1 ------- null}
r -t 2.22208 -s 1 -d 3 -p ack -e 40 -c 2 -i 17 -a 2 -x {2.1 3.0 4 ------- null}
+ -t 2.22208 -s 3 -d 1 -p tcp -e 1040 -c 2 -i 26 -a 2 -x {3.0 2.1 9 ------- null}
+ -t 2.22208 -s 3 -d 1 -p tcp -e 1040 -c 2 -i 27 -a 2 -x {3.0 2.1 10 ------- null}
- -t 2.22208 -s 3 -d 1 -p tcp -e 1040 -c 2 -i 23 -a 2 -x {3.0 2.1 8 ------- null}
h -t 2.22208 -s 3 -d 1 -p tcp -e 1040 -c 2 -i 23 -a 2 -x {3.0 2.1 -1 ------- null}
- -t 2.22224 -s 4 -d 0 -p tcp -e 1040 -c 1 -i 24 -a 1 -x {4.0 2.0 5 ------- null}
h -t 2.22224 -s 4 -d 0 -p tcp -e 1040 -c 1 -i 24 -a 1 -x {4.0 2.0 -1 ------- null}
r -t 2.22624 -s 1 -d 3 -p ack -e 40 -c 2 -i 18 -a 2 -x {2.1 3.0 5 ------- null}
+ -t 2.22624 -s 3 -d 1 -p tcp -e 1040 -c 2 -i 28 -a 2 -x {3.0 2.1 11 ------- null}
+ -t 2.22624 -s 3 -d 1 -p tcp -e 1040 -c 2 -i 29 -a 2 -x {3.0 2.1 12 ------- null}
- -t 2.22624 -s 3 -d 1 -p tcp -e 1040 -c 2 -i 26 -a 2 -x {3.0 2.1 9 ------- null}
h -t 2.22624 -s 3 -d 1 -p tcp -e 1040 -c 2 -i 26 -a 2 -x {3.0 2.1 -1 ------- null}
- -t 2.2264 -s 4 -d 0 -p tcp -e 1040 -c 1 -i 25 -a 1 -x {4.0 2.0 6 ------- null}
h -t 2.2264 -s 4 -d 0 -p tcp -e 1040 -c 1 -i 25 -a 1 -x {4.0 2.0 -1 ------- null}
r -t 2.2304 -s 1 -d 3 -p ack -e 40 -c 2 -i 19 -a 2 -x {2.1 3.0 6 ------- null}
+ -t 2.2304 -s 3 -d 1 -p tcp -e 1040 -c 2 -i 30 -a 2 -x {3.0 2.1 13 ------- null}
+ -t 2.2304 -s 3 -d 1 -p tcp -e 1040 -c 2 -i 31 -a 2 -x {3.0 2.1 14 ------- null}
- -t 2.2304 -s 3 -d 1 -p tcp -e 1040 -c 2 -i 27 -a 2 -x {3.0 2.1 10 ------- null}
h -t 2.2304 -s 3 -d 1 -p tcp -e 1040 -c 2 -i 27 -a 2 -x {3.0 2.1 -1 ------- null}
- -t 2.23456 -s 3 -d 1 -p tcp -e 1040 -c 2 -i 28 -a 2 -x {3.0 2.1 11 ------- null}
h -t 2.23456 -s 3 -d 1 -p tcp -e 1040 -c 2 -i 28 -a 2 -x {3.0 2.1 -1 ------- null}
- -t 2.23872 -s 3 -d 1 -p tcp -e 1040 -c 2 -i 29 -a 2 -x {3.0 2.1 12 ------- null}
h -t 2.23872 -s 3 -d 1 -p tcp -e 1040 -c 2 -i 29 -a 2 -x {3.0 2.1 -1 ------- null}
- -t 2.24288 -s 3 -d 1 -p tcp -e 1040 -c 2 -i 30 -a 2 -x {3.0 2.1 13 ------- null}
h -t 2.24288 -s 3 -d 1 -p tcp -e 1040 -c 2 -i 30 -a 2 -x {3.0 2.1 -1 ------- null}
- -t 2.24704 -s 3 -d 1 -p tcp -e 1040 -c 2 -i 31 -a 2 -x {3.0 2.1 14 ------- null}
h -t 2.24704 -s 3 -d 1 -p tcp -e 1040 -c 2 -i 31 -a 2 -x {3.0 2.1 -1 ------- null}
r -t 2.31808 -s 4 -d 0 -p tcp -e 1040 -c 1 -i 20 -a 1 -x {4.0 2.0 3 ------- null}
+ -t 2.31808 -s 0 -d 1 -p tcp -e 1040 -c 1 -i 20 -a 1 -x {4.0 2.0 3 ------- null}
- -t 2.31808 -s 0 -d 1 -p tcp -e 1040 -c 1 -i 20 -a 1 -x {4.0 2.0 3 ------- null}
h -t 2.31808 -s 0 -d 1 -p tcp -e 1040 -c 1 -i 20 -a 1 -x {4.0 2.0 -1 ------- null}
r -t 2.32208 -s 3 -d 1 -p tcp -e 1040 -c 2 -i 22 -a 2 -x {3.0 2.1 7 ------- null}
+ -t 2.32208 -s 1 -d 2 -p tcp -e 1040 -c 2 -i 22 -a 2 -x {3.0 2.1 7 ------- null}
- -t 2.32208 -s 1 -d 2 -p tcp -e 1040 -c 2 -i 22 -a 2 -x {3.0 2.1 7 ------- null}
h -t 2.32208 -s 1 -d 2 -p tcp -e 1040 -c 2 -i 22 -a 2 -x {3.0 2.1 -1 ------- null}
r -t 2.32224 -s 4 -d 0 -p tcp -e 1040 -c 1 -i 21 -a 1 -x {4.0 2.0 4 ------- null}
+ -t 2.32224 -s 0 -d 1 -p tcp -e 1040 -c 1 -i 21 -a 1 -x {4.0 2.0 4 ------- null}
- -t 2.32224 -s 0 -d 1 -p tcp -e 1040 -c 1 -i 21 -a 1 -x {4.0 2.0 4 ------- null}
h -t 2.32224 -s 0 -d 1 -p tcp -e 1040 -c 1 -i 21 -a 1 -x {4.0 2.0 -1 ------- null}
r -t 2.32624 -s 3 -d 1 -p tcp -e 1040 -c 2 -i 23 -a 2 -x {3.0 2.1 8 ------- null}
+ -t 2.32624 -s 1 -d 2 -p tcp -e 1040 -c 2 -i 23 -a 2 -x {3.0 2.1 8 ------- null}
- -t 2.32624 -s 1 -d 2 -p tcp -e 1040 -c 2 -i 23 -a 2 -x {3.0 2.1 8 ------- null}
h -t 2.32624 -s 1 -d 2 -p tcp -e 1040 -c 2 -i 23 -a 2 -x {3.0 2.1 -1 ------- null}
r -t 2.3264 -s 4 -d 0 -p tcp -e 1040 -c 1 -i 24 -a 1 -x {4.0 2.0 5 ------- null}
+ -t 2.3264 -s 0 -d 1 -p tcp -e 1040 -c 1 -i 24 -a 1 -x {4.0 2.0 5 ------- null}
- -t 2.3264 -s 0 -d 1 -p tcp -e 1040 -c 1 -i 24 -a 1 -x {4.0 2.0 5 ------- null}
h -t 2.3264 -s 0 -d 1 -p tcp -e 1040 -c 1 -i 24 -a 1 -x {4.0 2.0 -1 ------- null}
r -t 2.3304 -s 3 -d 1 -p tcp -e 1040 -c 2 -i 26 -a 2 -x {3.0 2.1 9 ------- null}
+ -t 2.3304 -s 1 -d 2 -p tcp -e 1040 -c 2 -i 26 -a 2 -x {3.0 2.1 9 ------- null}
- -t 2.3304 -s 1 -d 2 -p tcp -e 1040 -c 2 -i 26 -a 2 -x {3.0 2.1 9 ------- null}
h -t 2.3304 -s 1 -d 2 -p tcp -e 1040 -c 2 -i 26 -a 2 -x {3.0 2.1 -1 ------- null}
r -t 2.33056 -s 4 -d 0 -p tcp -e 1040 -c 1 -i 25 -a 1 -x {4.0 2.0 6 ------- null}
+ -t 2.33056 -s 0 -d 1 -p tcp -e 1040 -c 1 -i 25 -a 1 -x {4.0 2.0 6 ------- null}
- -t 2.33056 -s 0 -d 1 -p tcp -e 1040 -c 1 -i 25 -a 1 -x {4.0 2.0 6 ------- null}
h -t 2.33056 -s 0 -d 1 -p tcp -e 1040 -c 1 -i 25 -a 1 -x {4.0 2.0 -1 ------- null}
r -t 2.33456 -s 3 -d 1 -p tcp -e 1040 -c 2 -i 27 -a 2 -x {3.0 2.1 10 ------- null}
+ -t 2.33456 -s 1 -d 2 -p tcp -e 1040 -c 2 -i 27 -a 2 -x {3.0 2.1 10 ------- null}
- -t 2.33456 -s 1 -d 2 -p tcp -e 1040 -c 2 -i 27 -a 2 -x {3.0 2.1 10 ------- null}
h -t 2.33456 -s 1 -d 2 -p tcp -e 1040 -c 2 -i 27 -a 2 -x {3.0 2.1 -1 ------- null}
r -t 2.33872 -s 3 -d 1 -p tcp -e 1040 -c 2 -i 28 -a 2 -x {3.0 2.1 11 ------- null}
+ -t 2.33872 -s 1 -d 2 -p tcp -e 1040 -c 2 -i 28 -a 2 -x {3.0 2.1 11 ------- null}
- -t 2.33872 -s 1 -d 2 -p tcp -e 1040 -c 2 -i 28 -a 2 -x {3.0 2.1 11 ------- null}
h -t 2.33872 -s 1 -d 2 -p tcp -e 1040 -c 2 -i 28 -a 2 -x {3.0 2.1 -1 ------- null}
r -t 2.34288 -s 3 -d 1 -p tcp -e 1040 -c 2 -i 29 -a 2 -x {3.0 2.1 12 ------- null}
+ -t 2.34288 -s 1 -d 2 -p tcp -e 1040 -c 2 -i 29 -a 2 -x {3.0 2.1 12 ------- null}
- -t 2.34288 -s 1 -d 2 -p tcp -e 1040 -c 2 -i 29 -a 2 -x {3.0 2.1 12 ------- null}
h -t 2.34288 -s 1 -d 2 -p tcp -e 1040 -c 2 -i 29 -a 2 -x {3.0 2.1 -1 ------- null}
r -t 2.34704 -s 3 -d 1 -p tcp -e 1040 -c 2 -i 30 -a 2 -x {3.0 2.1 13 ------- null}
+ -t 2.34704 -s 1 -d 2 -p tcp -e 1040 -c 2 -i 30 -a 2 -x {3.0 2.1 13 ------- null}
- -t 2.34704 -s 1 -d 2 -p tcp -e 1040 -c 2 -i 30 -a 2 -x {3.0 2.1 13 ------- null}
h -t 2.34704 -s 1 -d 2 -p tcp -e 1040 -c 2 -i 30 -a 2 -x {3.0 2.1 -1 ------- null}
r -t 2.3512 -s 3 -d 1 -p tcp -e 1040 -c 2 -i 31 -a 2 -x {3.0 2.1 14 ------- null}
+ -t 2.3512 -s 1 -d 2 -p tcp -e 1040 -c 2 -i 31 -a 2 -x {3.0 2.1 14 ------- null}
- -t 2.3512 -s 1 -d 2 -p tcp -e 1040 -c 2 -i 31 -a 2 -x {3.0 2.1 14 ------- null}
h -t 2.3512 -s 1 -d 2 -p tcp -e 1040 -c 2 -i 31 -a 2 -x {3.0 2.1 -1 ------- null}
r -t 2.42224 -s 0 -d 1 -p tcp -e 1040 -c 1 -i 20 -a 1 -x {4.0 2.0 3 ------- null}
+ -t 2.42224 -s 1 -d 2 -p tcp -e 1040 -c 1 -i 20 -a 1 -x {4.0 2.0 3 ------- null}
- -t 2.42224 -s 1 -d 2 -p tcp -e 1040 -c 1 -i 20 -a 1 -x {4.0 2.0 3 ------- null}
h -t 2.42224 -s 1 -d 2 -p tcp -e 1040 -c 1 -i 20 -a 1 -x {4.0 2.0 -1 ------- null}
r -t 2.42624 -s 1 -d 2 -p tcp -e 1040 -c 2 -i 22 -a 2 -x {3.0 2.1 7 ------- null}
+ -t 2.42624 -s 2 -d 1 -p ack -e 40 -c 2 -i 32 -a 2 -x {2.1 3.0 7 ------- null}
- -t 2.42624 -s 2 -d 1 -p ack -e 40 -c 2 -i 32 -a 2 -x {2.1 3.0 7 ------- null}
h -t 2.42624 -s 2 -d 1 -p ack -e 40 -c 2 -i 32 -a 2 -x {2.1 3.0 -1 ------- null}
r -t 2.4264 -s 0 -d 1 -p tcp -e 1040 -c 1 -i 21 -a 1 -x {4.0 2.0 4 ------- null}
+ -t 2.4264 -s 1 -d 2 -p tcp -e 1040 -c 1 -i 21 -a 1 -x {4.0 2.0 4 ------- null}
- -t 2.4264 -s 1 -d 2 -p tcp -e 1040 -c 1 -i 21 -a 1 -x {4.0 2.0 4 ------- null}
h -t 2.4264 -s 1 -d 2 -p tcp -e 1040 -c 1 -i 21 -a 1 -x {4.0 2.0 -1 ------- null}
r -t 2.4304 -s 1 -d 2 -p tcp -e 1040 -c 2 -i 23 -a 2 -x {3.0 2.1 8 ------- null}
+ -t 2.4304 -s 2 -d 1 -p ack -e 40 -c 2 -i 33 -a 2 -x {2.1 3.0 8 ------- null}
- -t 2.4304 -s 2 -d 1 -p ack -e 40 -c 2 -i 33 -a 2 -x {2.1 3.0 8 ------- null}
h -t 2.4304 -s 2 -d 1 -p ack -e 40 -c 2 -i 33 -a 2 -x {2.1 3.0 -1 ------- null}
r -t 2.43056 -s 0 -d 1 -p tcp -e 1040 -c 1 -i 24 -a 1 -x {4.0 2.0 5 ------- null}
+ -t 2.43056 -s 1 -d 2 -p tcp -e 1040 -c 1 -i 24 -a 1 -x {4.0 2.0 5 ------- null}
- -t 2.43056 -s 1 -d 2 -p tcp -e 1040 -c 1 -i 24 -a 1 -x {4.0 2.0 5 ------- null}
h -t 2.43056 -s 1 -d 2 -p tcp -e 1040 -c 1 -i 24 -a 1 -x {4.0 2.0 -1 ------- null}
r -t 2.43456 -s 1 -d 2 -p tcp -e 1040 -c 2 -i 26 -a 2 -x {3.0 2.1 9 ------- null}
+ -t 2.43456 -s 2 -d 1 -p ack -e 40 -c 2 -i 34 -a 2 -x {2.1 3.0 9 ------- null}
- -t 2.43456 -s 2 -d 1 -p ack -e 40 -c 2 -i 34 -a 2 -x {2.1 3.0 9 ------- null}
h -t 2.43456 -s 2 -d 1 -p ack -e 40 -c 2 -i 34 -a 2 -x {2.1 3.0 -1 ------- null}
r -t 2.43472 -s 0 -d 1 -p tcp -e 1040 -c 1 -i 25 -a 1 -x {4.0 2.0 6 ------- null}
+ -t 2.43472 -s 1 -d 2 -p tcp -e 1040 -c 1 -i 25 -a 1 -x {4.0 2.0 6 ------- null}
- -t 2.43472 -s 1 -d 2 -p tcp -e 1040 -c 1 -i 25 -a 1 -x {4.0 2.0 6 ------- null}
h -t 2.43472 -s 1 -d 2 -p tcp -e 1040 -c 1 -i 25 -a 1 -x {4.0 2.0 -1 ------- null}
r -t 2.43872 -s 1 -d 2 -p tcp -e 1040 -c 2 -i 27 -a 2 -x {3.0 2.1 10 ------- null}
+ -t 2.43872 -s 2 -d 1 -p ack -e 40 -c 2 -i 35 -a 2 -x {2.1 3.0 10 ------- null}
- -t 2.43872 -s 2 -d 1 -p ack -e 40 -c 2 -i 35 -a 2 -x {2.1 3.0 10 ------- null}
h -t 2.43872 -s 2 -d 1 -p ack -e 40 -c 2 -i 35 -a 2 -x {2.1 3.0 -1 ------- null}
r -t 2.44288 -s 1 -d 2 -p tcp -e 1040 -c 2 -i 28 -a 2 -x {3.0 2.1 11 ------- null}
+ -t 2.44288 -s 2 -d 1 -p ack -e 40 -c 2 -i 36 -a 2 -x {2.1 3.0 11 ------- null}
- -t 2.44288 -s 2 -d 1 -p ack -e 40 -c 2 -i 36 -a 2 -x {2.1 3.0 11 ------- null}
h -t 2.44288 -s 2 -d 1 -p ack -e 40 -c 2 -i 36 -a 2 -x {2.1 3.0 -1 ------- null}
r -t 2.44704 -s 1 -d 2 -p tcp -e 1040 -c 2 -i 29 -a 2 -x {3.0 2.1 12 ------- null}
+ -t 2.44704 -s 2 -d 1 -p ack -e 40 -c 2 -i 37 -a 2 -x {2.1 3.0 12 ------- null}
- -t 2.44704 -s 2 -d 1 -p ack -e 40 -c 2 -i 37 -a 2 -x {2.1 3.0 12 ------- null}
h -t 2.44704 -s 2 -d 1 -p ack -e 40 -c 2 -i 37 -a 2 -x {2.1 3.0 -1 ------- null}
r -t 2.4512 -s 1 -d 2 -p tcp -e 1040 -c 2 -i 30 -a 2 -x {3.0 2.1 13 ------- null}
+ -t 2.4512 -s 2 -d 1 -p ack -e 40 -c 2 -i 38 -a 2 -x {2.1 3.0 13 ------- null}
- -t 2.4512 -s 2 -d 1 -p ack -e 40 -c 2 -i 38 -a 2 -x {2.1 3.0 13 ------- null}
h -t 2.4512 -s 2 -d 1 -p ack -e 40 -c 2 -i 38 -a 2 -x {2.1 3.0 -1 ------- null}
r -t 2.45536 -s 1 -d 2 -p tcp -e 1040 -c 2 -i 31 -a 2 -x {3.0 2.1 14 ------- null}
+ -t 2.45536 -s 2 -d 1 -p ack -e 40 -c 2 -i 39 -a 2 -x {2.1 3.0 14 ------- null}
- -t 2.45536 -s 2 -d 1 -p ack -e 40 -c 2 -i 39 -a 2 -x {2.1 3.0 14 ------- null}
h -t 2.45536 -s 2 -d 1 -p ack -e 40 -c 2 -i 39 -a 2 -x {2.1 3.0 -1 ------- null}
r -t 2.5264 -s 1 -d 2 -p tcp -e 1040 -c 1 -i 20 -a 1 -x {4.0 2.0 3 ------- null}
+ -t 2.5264 -s 2 -d 1 -p ack -e 40 -c 1 -i 40 -a 1 -x {2.0 4.0 3 ------- null}
- -t 2.5264 -s 2 -d 1 -p ack -e 40 -c 1 -i 40 -a 1 -x {2.0 4.0 3 ------- null}
h -t 2.5264 -s 2 -d 1 -p ack -e 40 -c 1 -i 40 -a 1 -x {2.0 4.0 -1 ------- null}
r -t 2.5264 -s 2 -d 1 -p ack -e 40 -c 2 -i 32 -a 2 -x {2.1 3.0 7 ------- null}
+ -t 2.5264 -s 1 -d 3 -p ack -e 40 -c 2 -i 32 -a 2 -x {2.1 3.0 7 ------- null}
- -t 2.5264 -s 1 -d 3 -p ack -e 40 -c 2 -i 32 -a 2 -x {2.1 3.0 7 ------- null}
h -t 2.5264 -s 1 -d 3 -p ack -e 40 -c 2 -i 32 -a 2 -x {2.1 3.0 -1 ------- null}
r -t 2.53056 -s 1 -d 2 -p tcp -e 1040 -c 1 -i 21 -a 1 -x {4.0 2.0 4 ------- null}
+ -t 2.53056 -s 2 -d 1 -p ack -e 40 -c 1 -i 41 -a 1 -x {2.0 4.0 4 ------- null}
- -t 2.53056 -s 2 -d 1 -p ack -e 40 -c 1 -i 41 -a 1 -x {2.0 4.0 4 ------- null}
h -t 2.53056 -s 2 -d 1 -p ack -e 40 -c 1 -i 41 -a 1 -x {2.0 4.0 -1 ------- null}
r -t 2.53056 -s 2 -d 1 -p ack -e 40 -c 2 -i 33 -a 2 -x {2.1 3.0 8 ------- null}
+ -t 2.53056 -s 1 -d 3 -p ack -e 40 -c 2 -i 33 -a 2 -x {2.1 3.0 8 ------- null}
- -t 2.53056 -s 1 -d 3 -p ack -e 40 -c 2 -i 33 -a 2 -x {2.1 3.0 8 ------- null}
h -t 2.53056 -s 1 -d 3 -p ack -e 40 -c 2 -i 33 -a 2 -x {2.1 3.0 -1 ------- null}
r -t 2.53472 -s 1 -d 2 -p tcp -e 1040 -c 1 -i 24 -a 1 -x {4.0 2.0 5 ------- null}
+ -t 2.53472 -s 2 -d 1 -p ack -e 40 -c 1 -i 42 -a 1 -x {2.0 4.0 5 ------- null}
- -t 2.53472 -s 2 -d 1 -p ack -e 40 -c 1 -i 42 -a 1 -x {2.0 4.0 5 ------- null}
h -t 2.53472 -s 2 -d 1 -p ack -e 40 -c 1 -i 42 -a 1 -x {2.0 4.0 -1 ------- null}
r -t 2.53472 -s 2 -d 1 -p ack -e 40 -c 2 -i 34 -a 2 -x {2.1 3.0 9 ------- null}
+ -t 2.53472 -s 1 -d 3 -p ack -e 40 -c 2 -i 34 -a 2 -x {2.1 3.0 9 ------- null}
- -t 2.53472 -s 1 -d 3 -p ack -e 40 -c 2 -i 34 -a 2 -x {2.1 3.0 9 ------- null}
h -t 2.53472 -s 1 -d 3 -p ack -e 40 -c 2 -i 34 -a 2 -x {2.1 3.0 -1 ------- null}
r -t 2.53888 -s 1 -d 2 -p tcp -e 1040 -c 1 -i 25 -a 1 -x {4.0 2.0 6 ------- null}
+ -t 2.53888 -s 2 -d 1 -p ack -e 40 -c 1 -i 43 -a 1 -x {2.0 4.0 6 ------- null}
- -t 2.53888 -s 2 -d 1 -p ack -e 40 -c 1 -i 43 -a 1 -x {2.0 4.0 6 ------- null}
h -t 2.53888 -s 2 -d 1 -p ack -e 40 -c 1 -i 43 -a 1 -x {2.0 4.0 -1 ------- null}
r -t 2.53888 -s 2 -d 1 -p ack -e 40 -c 2 -i 35 -a 2 -x {2.1 3.0 10 ------- null}
+ -t 2.53888 -s 1 -d 3 -p ack -e 40 -c 2 -i 35 -a 2 -x {2.1 3.0 10 ------- null}
- -t 2.53888 -s 1 -d 3 -p ack -e 40 -c 2 -i 35 -a 2 -x {2.1 3.0 10 ------- null}
h -t 2.53888 -s 1 -d 3 -p ack -e 40 -c 2 -i 35 -a 2 -x {2.1 3.0 -1 ------- null}
r -t 2.54304 -s 2 -d 1 -p ack -e 40 -c 2 -i 36 -a 2 -x {2.1 3.0 11 ------- null}
+ -t 2.54304 -s 1 -d 3 -p ack -e 40 -c 2 -i 36 -a 2 -x {2.1 3.0 11 ------- null}
- -t 2.54304 -s 1 -d 3 -p ack -e 40 -c 2 -i 36 -a 2 -x {2.1 3.0 11 ------- null}
h -t 2.54304 -s 1 -d 3 -p ack -e 40 -c 2 -i 36 -a 2 -x {2.1 3.0 -1 ------- null}
r -t 2.5472 -s 2 -d 1 -p ack -e 40 -c 2 -i 37 -a 2 -x {2.1 3.0 12 ------- null}
+ -t 2.5472 -s 1 -d 3 -p ack -e 40 -c 2 -i 37 -a 2 -x {2.1 3.0 12 ------- null}
- -t 2.5472 -s 1 -d 3 -p ack -e 40 -c 2 -i 37 -a 2 -x {2.1 3.0 12 ------- null}
h -t 2.5472 -s 1 -d 3 -p ack -e 40 -c 2 -i 37 -a 2 -x {2.1 3.0 -1 ------- null}
r -t 2.55136 -s 2 -d 1 -p ack -e 40 -c 2 -i 38 -a 2 -x {2.1 3.0 13 ------- null}
+ -t 2.55136 -s 1 -d 3 -p ack -e 40 -c 2 -i 38 -a 2 -x {2.1 3.0 13 ------- null}
- -t 2.55136 -s 1 -d 3 -p ack -e 40 -c 2 -i 38 -a 2 -x {2.1 3.0 13 ------- null}
h -t 2.55136 -s 1 -d 3 -p ack -e 40 -c 2 -i 38 -a 2 -x {2.1 3.0 -1 ------- null}
r -t 2.55552 -s 2 -d 1 -p ack -e 40 -c 2 -i 39 -a 2 -x {2.1 3.0 14 ------- null}
+ -t 2.55552 -s 1 -d 3 -p ack -e 40 -c 2 -i 39 -a 2 -x {2.1 3.0 14 ------- null}