V -t * -v 1.0a5 -a 0
A -t * -n 1 -p 0 -o 0x7fffffff -c 30 -a 1
A -t * -h 1 -m 1073741823 -s 0
c -t * -i 1 -n Red
c -t * -i 2 -n Blue
n -t * -a 4 -s 4 -S UP -v circle -c black -i black
n -t * -a 0 -s 0 -S UP -v circle -c black -i black
n -t * -a 1 -s 1 -S UP -v circle -c black -i black
n -t * -a 2 -s 2 -S UP -v circle -c black -i black
n -t * -a 3 -s 3 -S UP -v circle -c black -i black
l -t * -s 4 -d 0 -S UP -r 2000000 -D 0.10000000000000001 -c black
l -t * -s 0 -d 1 -S UP -r 2000000 -D 0.10000000000000001 -c black
l -t * -s 1 -d 2 -S UP -r 1000000 -D 0.10000000000000001 -c black
l -t * -s 3 -d 1 -S UP -r 2000000 -D 0.10000000000000001 -c black
+ -t 1 -s 4 -d 0 -p tcp -e 40 -c 1 -i 0 -a 1 -x {4.0 2.0 0 ------- null}
- -t 1 -s 4 -d 0 -p tcp -e 40 -c 1 -i 0 -a 1 -x {4.0 2.0 0 ------- null}
h -t 1 -s 4 -d 0 -p tcp -e 40 -c 1 -i 0 -a 1 -x {4.0 2.0 -1 ------- null}
+ -t 1 -s 3 -d 1 -p tcp -e 40 -c 2 -i 1 -a 2 -x {3.0 2.1 0 ------- null}
- -t 1 -s 3 -d 1 -p tcp -e 40 -c 2 -i 1 -a 2 -x {3.0 2.1 0 ------- null}
h -t 1 -s 3 -d 1 -p tcp -e 40 -c 2 -i 1 -a 2 -x {3.0 2.1 -1 ------- null}
r -t 1.10016 -s 4 -d 0 -p tcp -e 40 -c 1 -i 0 -a 1 -x {4.0 2.0 0 ------- null}
+ -t 1.10016 -s 0 -d 1 -p tcp -e 40 -c 1 -i 0 -a 1 -x {4.0 2.0 0 ------- null}
- -t 1.10016 -s 0 -d 1 -p tcp -e 40 -c 1 -i 0 -a 1 -x {4.0 2.0 0 ------- null}
h -t 1.10016 -s 0 -d 1 -p tcp -e 40 -c 1 -i 0 -a 1 -x {4.0 2.0 -1 ------- null}
r -t 1.10016 -s 3 -d 1 -p tcp -e 40 -c 2 -i 1 -a 2 -x {3.0 2.1 0 ------- null}
+ -t 1.10016 -s 1 -d 2 -p tcp -e 40 -c 2 -i 1 -a 2 -x {3.0 2.1 0 ------- null}
- -t 1.10016 -s 1 -d 2 -p tcp -e 40 -c 2 -i 1 -a 2 -x {3.0 2.1 0 ------- null}
h -t 1.10016 -s 1 -d 2 -p tcp -e 40 -c 2 -i 1 -a 2 -x {3.0 2.1 -1 ------- null}
r -t 1.20032 -s 0 -d 1 -p tcp -e 40 -c 1 -i 0 -a 1 -x {4.0 2.0 0 ------- null}
+ -t 1.20032 -s 1 -d 2 -p tcp -e 40 -c 1 -i 0 -a 1 -x {4.0 2.0 0 ------- null}
- -t 1.20032 -s 1 -d 2 -p tcp -e 40 -c 1 -i 0 -a 1 -x {4.0 2.0 0 ------- null}
h -t 1.20032 -s 1 -d 2 -p tcp -e 40 -c 1 -i 0 -a 1 -x {4.0 2.0 -1 ------- null}
r -t 1.20048 -s 1 -d 2 -p tcp -e 40 -c 2 -i 1 -a 2 -x {3.0 2.1 0 ------- null}
+ -t 1.20048 -s 2 -d 1 -p ack -e 40 -c 2 -i 2 -a 2 -x {2.1 3.0 0 ------- null}
- -t 1.20048 -s 2 -d 1 -p ack -e 40 -c 2 -i 2 -a 2 -x {2.1 3.0 0 ------- null}
h -t 1.20048 -s 2 -d 1 -p ack -e 40 -c 2 -i 2 -a 2 -x {2.1 3.0 -1 ------- null}
r -t 1.30064 -s 1 -d 2 -p tcp -e 40 -c 1 -i 0 -a 1 -x {4.0 2.0 0 ------- null}
+ -t 1.30064 -s 2 -d 1 -p ack -e 40 -c 1 -i 3 -a 1 -x {2.0 4.0 0 ------- null}
- -t 1.30064 -s 2 -d 1 -p ack -e 40 -c 1 -i 3 -a 1 -x {2.0 4.0 0 ------- null}
h -t 1.30064 -s 2 -d 1 -p ack -e 40 -c 1 -i 3 -a 1 -x {2.0 4.0 -1 ------- null}
r -t 1.3008 -s 2 -d 1 -p ack -e 40 -c 2 -i 2 -a 2 -x {2.1 3.0 0 ------- null}
+ -t 1.3008 -s 1 -d 3 -p ack -e 40 -c 2 -i 2 -a 2 -x {2.1 3.0 0 ------- null}
- -t 1.3008 -s 1 -d 3 -p ack -e 40 -c 2 -i 2 -a 2 -x {2.1 3.0 0 ------- null}
h -t 1.3008 -s 1 -d 3 -p ack -e 40 -c 2 -i 2 -a 2 -x {2.1 3.0 -1 ------- null}
r -t 1.40096 -s 2 -d 1 -p ack -e 40 -c 1 -i 3 -a 1 -x {2.0 4.0 0 ------- null}
+ -t 1.40096 -s 1 -d 0 -p ack -e 40 -c 1 -i 3 -a 1 -x {2.0 4.0 0 ------- null}
- -t 1.40096 -s 1 -d 0 -p ack -e 40 -c 1 -i 3 -a 1 -x {2.0 4.0 0 ------- null}
h -t 1.40096 -s 1 -d 0 -p ack -e 40 -c 1 -i 3 -a 1 -x {2.0 4.0 -1 ------- null}
r -t 1.40096 -s 1 -d 3 -p ack -e 40 -c 2 -i 2 -a 2 -x {2.1 3.0 0 ------- null}
+ -t 1.40096 -s 3 -d 1 -p tcp -e 1040 -c 2 -i 4 -a 2 -x {3.0 2.1 1 ------- null}
- -t 1.40096 -s 3 -d 1 -p tcp -e 1040 -c 2 -i 4 -a 2 -x {3.0 2.1 1 ------- null}
h -t 1.40096 -s 3 -d 1 -p tcp -e 1040 -c 2 -i 4 -a 2 -x {3.0 2.1 -1 ------- null}
+ -t 1.40096 -s 3 -d 1 -p tcp -e 1040 -c 2 -i 5 -a 2 -x {3.0 2.1 2 ------- null}
- -t 1.40512 -s 3 -d 1 -p tcp -e 1040 -c 2 -i 5 -a 2 -x {3.0 2.1 2 ------- null}
h -t 1.40512 -s 3 -d 1 -p tcp -e 1040 -c 2 -i 5 -a 2 -x {3.0 2.1 -1 ------- null}
r -t 1.50112 -s 1 -d 0 -p ack -e 40 -c 1 -i 3 -a 1 -x {2.0 4.0 0 ------- null}
+ -t 1.50112 -s 0 -d 4 -p ack -e 40 -c 1 -i 3 -a 1 -x {2.0 4.0 0 ------- null}
- -t 1.50112 -s 0 -d 4 -p ack -e 40 -c 1 -i 3 -a 1 -x {2.0 4.0 0 ------- null}
h -t 1.50112 -s 0 -d 4 -p ack -e 40 -c 1 -i 3 -a 1 -x {2.0 4.0 -1 ------- null}
r -t 1.50512 -s 3 -d 1 -p tcp -e 1040 -c 2 -i 4 -a 2 -x {3.0 2.1 1 ------- null}
+ -t 1.50512 -s 1 -d 2 -p tcp -e 1040 -c 2 -i 4 -a 2 -x {3.0 2.1 1 ------- null}
- -t 1.50512 -s 1 -d 2 -p tcp -e 1040 -c 2 -i 4 -a 2 -x {3.0 2.1 1 ------- null}
h -t 1.50512 -s 1 -d 2 -p tcp -e 1040 -c 2 -i 4 -a 2 -x {3.0 2.1 -1 ------- null}
r -t 1.50928 -s 3 -d 1 -p tcp -e 1040 -c 2 -i 5 -a 2 -x {3.0 2.1 2 ------- null}
+ -t 1.50928 -s 1 -d 2 -p tcp -e 1040 -c 2 -i 5 -a 2 -x {3.0 2.1 2 ------- null}
- -t 1.51344 -s 1 -d 2 -p tcp -e 1040 -c 2 -i 5 -a 2 -x {3.0 2.1 2 ------- null}
h -t 1.51344 -s 1 -d 2 -p tcp -e 1040 -c 2 -i 5 -a 2 -x {3.0 2.1 -1 ------- null}
r -t 1.60128 -s 0 -d 4 -p ack -e 40 -c 1 -i 3 -a 1 -x {2.0 4.0 0 ------- null}
+ -t 1.60128 -s 4 -d 0 -p tcp -e 1040 -c 1 -i 6 -a 1 -x {4.0 2.0 1 ------- null}
- -t 1.60128 -s 4 -d 0 -p tcp -e 1040 -c 1 -i 6 -a 1 -x {4.0 2.0 1 ------- null}
h -t 1.60128 -s 4 -d 0 -p tcp -e 1040 -c 1 -i 6 -a 1 -x {4.0 2.0 -1 ------- null}
+ -t 1.60128 -s 4 -d 0 -p tcp -e 1040 -c 1 -i 7 -a 1 -x {4.0 2.0 2 ------- null}
- -t 1.60544 -s 4 -d 0 -p tcp -e 1040 -c 1 -i 7 -a 1 -x {4.0 2.0 2 ------- null}
h -t 1.60544 -s 4 -d 0 -p tcp -e 1040 -c 1 -i 7 -a 1 -x {4.0 2.0 -1 ------- null}
r -t 1.61344 -s 1 -d 2 -p tcp -e 1040 -c 2 -i 4 -a 2 -x {3.0 2.1 1 ------- null}
+ -t 1.61344 -s 2 -d 1 -p ack -e 40 -c 2 -i 8 -a 2 -x {2.1 3.0 1 ------- null}
- -t 1.61344 -s 2 -d 1 -p ack -e 40 -c 2 -i 8 -a 2 -x {2.1 3.0 1 ------- null}
h -t 1.61344 -s 2 -d 1 -p ack -e 40 -c 2 -i 8 -a 2 -x {2.1 3.0 -1 ------- null}
r -t 1.62176 -s 1 -d 2 -p tcp -e 1040 -c 2 -i 5 -a 2 -x {3.0 2.1 2 ------- null}
+ -t 1.62176 -s 2 -d 1 -p ack -e 40 -c 2 -i 9 -a 2 -x {2.1 3.0 2 ------- null}
- -t 1.62176 -s 2 -d 1 -p ack -e 40 -c 2 -i 9 -a 2 -x {2.1 3.0 2 ------- null}
h -t 1.62176 -s 2 -d 1 -p ack -e 40 -c 2 -i 9 -a 2 -x {2.1 3.0 -1 ------- null}
r -t 1.70544 -s 4 -d 0 -p tcp -e 1040 -c 1 -i 6 -a 1 -x {4.0 2.0 1 ------- null}
+ -t 1.70544 -s 0 -d 1 -p tcp -e 1040 -c 1 -i 6 -a 1 -x {4.0 2.0 1 ------- null}
- -t 1.70544 -s 0 -d 1 -p tcp -e 1040 -c 1 -i 6 -a 1 -x {4.0 2.0 1 ------- null}
h -t 1.70544 -s 0 -d 1 -p tcp -e 1040 -c 1 -i 6 -a 1 -x {4.0 2.0 -1 ------- null}
r -t 1.7096 -s 4 -d 0 -p tcp -e 1040 -c 1 -i 7 -a 1 -x {4.0 2.0 2 ------- null}
+ -t 1.7096 -s 0 -d 1 -p tcp -e 1040 -c 1 -i 7 -a 1 -x {4.0 2.0 2 ------- null}
- -t 1.7096 -s 0 -d 1 -p tcp -e 1040 -c 1 -i 7 -a 1 -x {4.0 2.0 2 ------- null}
h -t 1.7096 -s 0 -d 1 -p tcp -e 1040 -c 1 -i 7 -a 1 -x {4.0 2.0 -1 ------- null}
r -t 1.71376 -s 2 -d 1 -p ack -e 40 -c 2 -i 8 -a 2 -x {2.1 3.0 1 ------- null}
+ -t 1.71376 -s 1 -d 3 -p ack -e 40 -c 2 -i 8 -a 2 -x {2.1 3.0 1 ------- null}
- -t 1.71376 -s 1 -d 3 -p ack -e 40 -c 2 -i 8 -a 2 -x {2.1 3.0 1 ------- null}
h -t 1.71376 -s 1 -d 3 -p ack -e 40 -c 2 -i 8 -a 2 -x {2.1 3.0 -1 ------- null}
r -t 1.72208 -s 2 -d 1 -p ack -e 40 -c 2 -i 9 -a 2 -x {2.1 3.0 2 ------- null}
+ -t 1.72208 -s 1 -d 3 -p ack -e 40 -c 2 -i 9 -a 2 -x {2.1 3.0 2 ------- null}
- -t 1.72208 -s 1 -d 3 -p ack -e 40 -c 2 -i 9 -a 2 -x {2.1 3.0 2 ------- null}
h -t 1.72208 -s 1 -d 3 -p ack -e 40 -c 2 -i 9 -a 2 -x {2.1 3.0 -1 ------- null}
r -t 1.8096 -s 0 -d 1 -p tcp -e 1040 -c 1 -i 6 -a 1 -x {4.0 2.0 1 ------- null}
+ -t 1.8096 -s 1 -d 2 -p tcp -e 1040 -c 1 -i 6 -a 1 -x {4.0 2.0 1 ------- null}
- -t 1.8096 -s 1 -d 2 -p tcp -e 1040 -c 1 -i 6 -a 1 -x {4.0 2.0 1 ------- null}
h -t 1.8096 -s 1 -d 2 -p tcp -e 1040 -c 1 -i 6 -a 1 -x {4.0 2.0 -1 ------- null}
r -t 1.81376 -s 0 -d 1 -p tcp -e 1040 -c 1 -i 7 -a 1 -x {4.0 2.0 2 ------- null}
+ -t 1.81376 -s 1 -d 2 -p tcp -e 1040 -c 1 -i 7 -a 1 -x {4.0 2.0 2 ------- null}
r -t 1.81392 -s 1 -d 3 -p ack -e 40 -c 2 -i 8 -a 2 -x {2.1 3.0 1 ------- null}
+ -t 1.81392 -s 3 -d 1 -p tcp -e 1040 -c 2 -i 10 -a 2 -x {3.0 2.1 3 ------- null}
- -t 1.81392 -s 3 -d 1 -p tcp -e 1040 -c 2 -i 10 -a 2 -x {3.0 2.1 3 ------- null}
h -t 1.81392 -s 3 -d 1 -p tcp -e 1040 -c 2 -i 10 -a 2 -x {3.0 2.1 -1 ------- null}
+ -t 1.81392 -s 3 -d 1 -p tcp -e 1040 -c 2 -i 11 -a 2 -x {3.0 2.1 4 ------- null}
- -t 1.81792 -s 1 -d 2 -p tcp -e 1040 -c 1 -i 7 -a 1 -x {4.0 2.0 2 ------- null}
h -t 1.81792 -s 1 -d 2 -p tcp -e 1040 -c 1 -i 7 -a 1 -x {4.0 2.0 -1 ------- null}
- -t 1.81808 -s 3 -d 1 -p tcp -e 1040 -c 2 -i 11 -a 2 -x {3.0 2.1 4 ------- null}
h -t 1.81808 -s 3 -d 1 -p tcp -e 1040 -c 2 -i 11 -a 2 -x {3.0 2.1 -1 ------- null}
r -t 1.82224 -s 1 -d 3 -p ack -e 40 -c 2 -i 9 -a 2 -x {2.1 3.0 2 ------- null}
+ -t 1.82224 -s 3 -d 1 -p tcp -e 1040 -c 2 -i 12 -a 2 -x {3.0 2.1 5 ------- null}
- -t 1.82224 -s 3 -d 1 -p tcp -e 1040 -c 2 -i 12 -a 2 -x {3.0 2.1 5 ------- null}
h -t 1.82224 -s 3 -d 1 -p tcp -e 1040 -c 2 -i 12 -a 2 -x {3.0 2.1 -1 ------- null}
+ -t 1.82224 -s 3 -d 1 -p tcp -e 1040 -c 2 -i 13 -a 2 -x {3.0 2.1 6 ------- null}
- -t 1.8264 -s 3 -d 1 -p tcp -e 1040 -c 2 -i 13 -a 2 -x {3.0 2.1 6 ------- null}
h -t 1.8264 -s 3 -d 1 -p tcp -e 1040 -c 2 -i 13 -a 2 -x {3.0 2.1 -1 ------- null}
r -t 1.91792 -s 1 -d 2 -p tcp -e 1040 -c 1 -i 6 -a 1 -x {4.0 2.0 1 ------- null}
+ -t 1.91792 -s 2 -d 1 -p ack -e 40 -c 1 -i 14 -a 1 -x {2.0 4.0 1 ------- null}
- -t 1.91792 -s 2 -d 1 -p ack -e 40 -c 1 -i 14 -a 1 -x {2.0 4.0 1 ------- null}
h -t 1.91792 -s 2 -d 1 -p ack -e 40 -c 1 -i 14 -a 1 -x {2.0 4.0 -1 ------- null}
r -t 1.91808 -s 3 -d 1 -p tcp -e 1040 -c 2 -i 10 -a 2 -x {3.0 2.1 3 ------- null}
+ -t 1.91808 -s 1 -d 2 -p tcp -e 1040 -c 2 -i 10 -a 2 -x {3.0 2.1 3 ------- null}
- -t 1.91808 -s 1 -d 2 -p tcp -e 1040 -c 2 -i 10 -a 2 -x {3.0 2.1 3 ------- null}
h -t 1.91808 -s 1 -d 2 -p tcp -e 1040 -c 2 -i 10 -a 2 -x {3.0 2.1 -1 ------- null}
r -t 1.92224 -s 3 -d 1 -p tcp -e 1040 -c 2 -i 11 -a 2 -x {3.0 2.1 4 ------- null}
+ -t 1.92224 -s 1 -d 2 -p tcp -e 1040 -c 2 -i 11 -a 2 -x {3.0 2.1 4 ------- null}
r -t 1.92624 -s 1 -d 2 -p tcp -e 1040 -c 1 -i 7 -a 1 -x {4.0 2.0 2 ------- null}
+ -t 1.92624 -s 2 -d 1 -p ack -e 40 -c 1 -i 15 -a 1 -x {2.0 4.0 2 ------- null}
- -t 1.92624 -s 2 -d 1 -p ack -e 40 -c 1 -i 15 -a 1 -x {2.0 4.0 2 ------- null}
h -t 1.92624 -s 2 -d 1 -p ack -e 40 -c 1 -i 15 -a 1 -x {2.0 4.0 -1 ------- null}
r -t 1.9264 -s 3 -d 1 -p tcp -e 1040 -c 2 -i 12 -a 2 -x {3.0 2.1 5 ------- null}
+ -t 1.9264 -s 1 -d 2 -p tcp -e 1040 -c 2 -i 12 -a 2 -x {3.0 2.1 5 ------- null}
d -t 1.9264 -s 1 -d 2 -p tcp -e 1040 -c 2 -i 12 -a 2 -x {3.0 2.1 5 ------- null}
- -t 1.9264 -s 1 -d 2 -p tcp -e 1040 -c 2 -i 11 -a 2 -x {3.0 2.1 4 ------- null}
h -t 1.9264 -s 1 -d 2 -p tcp -e 1040 -c 2 -i 11 -a 2 -x {3.0 2.1 -1 ------- null}
r -t 1.93056 -s 3 -d 1 -p tcp -e 1040 -c 2 -i 13 -a 2 -x {3.0 2.1 6 ------- null}
+ -t 1.93056 -s 1 -d 2 -p tcp -e 1040 -c 2 -i 13 -a 2 -x {3.0 2.1 6 ------- null}
- -t 1.93472 -s 1 -d 2 -p tcp -e 1040 -c 2 -i 13 -a 2 -x {3.0 2.1 6 ------- null}
h -t 1.93472 -s 1 -d 2 -p tcp -e 1040 -c 2 -i 13 -a 2 -x {3.0 2.1 -1 ------- null}
r -t 2.01824 -s 2 -d 1 -p ack -e 40 -c 1 -i 14 -a 1 -x {2.0 4.0 1 ------- null}
+ -t 2.01824 -s 1 -d 0 -p ack -e 40 -c 1 -i 14 -a 1 -x {2.0 4.0 1 ------- null}
- -t 2.01824 -s 1 -d 0 -p ack -e 40 -c 1 -i 14 -a 1 -x {2.0 4.0 1 ------- null}
h -t 2.01824 -s 1 -d 0 -p ack -e 40 -c 1 -i 14 -a 1 -x {2.0 4.0 -1 ------- null}
r -t 2.0264 -s 1 -d 2 -p tcp -e 1040 -c 2 -i 10 -a 2 -x {3.0 2.1 3 ------- null}
+ -t 2.0264 -s 2 -d 1 -p ack -e 40 -c 2 -i 16 -a 2 -x {2.1 3.0 3 ------- null}
- -t 2.0264 -s 2 -d 1 -p ack -e 40 -c 2 -i 16 -a 2 -x {2.1 3.0 3 ------- null}
h -t 2.0264 -s 2 -d 1 -p ack -e 40 -c 2 -i 16 -a 2 -x {2.1 3.0 -1 ------- null}
r -t 2.02656 -s 2 -d 1 -p ack -e 40 -c 1 -i 15 -a 1 -x {2.0 4.0 2 ------- null}
+ -t 2.02656 -s 1 -d 0 -p ack -e 40 -c 1 -i 15 -a 1 -x {2.0 4.0 2 ------- null}
- -t 2.02656 -s 1 -d 0 -p ack -e 40 -c 1 -i 15 -a 1 -x {2.0 4.0 2 ------- null}
h -t 2.02656 -s 1 -d 0 -p ack -e 40 -c 1 -i 15 -a 1 -x {2.0 4.0 -1 ------- null}
r -t 2.03472 -s 1 -d 2 -p tcp -e 1040 -c 2 -i 11 -a 2 -x {3.0 2.1 4 ------- null}
+ -t 2.03472 -s 2 -d 1 -p ack -e 40 -c 2 -i 17 -a 2 -x {2.1 3.0 4 ------- null}
- -t 2.03472 -s 2 -d 1 -p ack -e 40 -c 2 -i 17 -a 2 -x {2.1 3.0 4 ------- null}
h -t 2.03472 -s 2 -d 1 -p ack -e 40 -c 2 -i 17 -a 2 -x {2.1 3.0 -1 ------- null}
r -t 2.04304 -s 1 -d 2 -p tcp -e 1040 -c 2 -i 13 -a 2 -x {3.0 2.1 6 ------- null}
+ -t 2.04304 -s 2 -d 1 -p ack -e 40 -c 2 -i 18 -a 2 -x {2.1 3.0 4 ------- null}
- -t 2.04304 -s 2 -d 1 -p ack -e 40 -c 2 -i 18 -a 2 -x {2.1 3.0 4 ------- null}
h -t 2.04304 -s 2 -d 1 -p ack -e 40 -c 2 -i 18 -a 2 -x {2.1 3.0 -1 ------- null}
r -t 2.1184 -s 1 -d 0 -p ack -e 40 -c 1 -i 14 -a 1 -x {2.0 4.0 1 ------- null}
+ -t 2.1184 -s 0 -d 4 -p ack -e 40 -c 1 -i 14 -a 1 -x {2.0 4.0 1 ------- null}
- -t 2.1184 -s 0 -d 4 -p ack -e 40 -c 1 -i 14 -a 1 -x {2.0 4.0 1 ------- null}
h -t 2.1184 -s 0 -d 4 -p ack -e 40 -c 1 -i 14 -a 1 -x {2.0 4.0 -1 ------- null}
r -t 2.12672 -s 2 -d 1 -p ack -e 40 -c 2 -i 16 -a 2 -x {2.1 3.0 3 ------- null}
+ -t 2.12672 -s 1 -d 3 -p ack -e 40 -c 2 -i 16 -a 2 -x {2.1 3.0 3 ------- null}
- -t 2.12672 -s 1 -d 3 -p ack -e 40 -c 2 -i 16 -a 2 -x {2.1 3.0 3 ------- null}
h -t 2.12672 -s 1 -d 3 -p ack -e 40 -c 2 -i 16 -a 2 -x {2.1 3.0 -1 ------- null}
r -t 2.12672 -s 1 -d 0 -p ack -e 40 -c 1 -i 15 -a 1 -x {2.0 4.0 2 ------- null}
+ -t 2.12672 -s 0 -d 4 -p ack -e 40 -c 1 -i 15 -a 1 -x {2.0 4.0 2 ------- null}
- -t 2.12672 -s 0 -d 4 -p ack -e 40 -c 1 -i 15 -a 1 -x {2.0 4.0 2 ------- null}
h -t 2.12672 -s 0 -d 4 -p ack -e 40 -c 1 -i 15 -a 1 -x {2.0 4.0 -1 ------- null}
r -t 2.13504 -s 2 -d 1 -p ack -e 40 -c 2 -i 17 -a 2 -x {2.1 3.0 4 ------- null}
+ -t 2.13504 -s 1 -d 3 -p ack -e 40 -c 2 -i 17 -a 2 -x {2.1 3.0 4 ------- null}
- -t 2.13504 -s 1 -d 3 -p ack -e 40 -c 2 -i 17 -a 2 -x {2.1 3.0 4 ------- null}
h -t 2.13504 -s 1 -d 3 -p ack -e 40 -c 2 -i 17 -a 2 -x {2.1 3.0 -1 ------- null}
r -t 2.14336 -s 2 -d 1 -p ack -e 40 -c 2 -i 18 -a 2 -x {2.1 3.0 4 ------- null}
+ -t 2.14336 -s 1 -d 3 -p ack -e 40 -c 2 -i 18 -a 2 -x {2.1 3.0 4 ------- null}
- -t 2.14336 -s 1 -d 3 -p ack -e 40 -c 2 -i 18 -a 2 -x {2.1 3.0 4 ------- null}
h -t 2.14336 -s 1 -d 3 -p ack -e 40 -c 2 -i 18 -a 2 -x {2.1 3.0 -1 ------- null}
r -t 2.21856 -s 0 -d 4 -p ack -e 40 -c 1 -i 14 -a 1 -x {2.0 4.0 1 ------- null}
+ -t 2.21856 -s 4 -d 0 -p tcp -e 1040 -c 1 -i 19 -a 1 -x {4.0 2.0 3 ------- null}
- -t 2.21856 -s 4 -d 0 -p tcp -e 1040 -c 1 -i 19 -a 1 -x {4.0 2.0 3 ------- null}
h -t 2.21856 -s 4 -d 0 -p tcp -e 1040 -c 1 -i 19 -a 1 -x {4.0 2.0 -1 ------- null}
+ -t 2.21856 -s 4 -d 0 -p tcp -e 1040 -c 1 -i 20 -a 1 -x {4.0 2.0 4 ------- null}
- -t 2.22272 -s 4 -d 0 -p tcp -e 1040 -c 1 -i 20 -a 1 -x {4.0 2.0 4 ------- null}
h -t 2.22272 -s 4 -d 0 -p tcp -e 1040 -c 1 -i 20 -a 1 -x {4.0 2.0 -1 ------- null}
r -t 2.22688 -s 1 -d 3 -p ack -e 40 -c 2 -i 16 -a 2 -x {2.1 3.0 3 ------- null}
+ -t 2.22688 -s 3 -d 1 -p tcp -e 1040 -c 2 -i 21 -a 2 -x {3.0 2.1 7 ------- null}
- -t 2.22688 -s 3 -d 1 -p tcp -e 1040 -c 2 -i 21 -a 2 -x {3.0 2.1 7 ------- null}
h -t 2.22688 -s 3 -d 1 -p tcp -e 1040 -c 2 -i 21 -a 2 -x {3.0 2.1 -1 ------- null}
+ -t 2.22688 -s 3 -d 1 -p tcp -e 1040 -c 2 -i 22 -a 2 -x {3.0 2.1 8 ------- null}
r -t 2.22688 -s 0 -d 4 -p ack -e 40 -c 1 -i 15 -a 1 -x {2.0 4.0 2 ------- null}
+ -t 2.22688 -s 4 -d 0 -p tcp -e 1040 -c 1 -i 23 -a 1 -x {4.0 2.0 5 ------- null}
+ -t 2.22688 -s 4 -d 0 -p tcp -e 1040 -c 1 -i 24 -a 1 -x {4.0 2.0 6 ------- null}
- -t 2.22688 -s 4 -d 0 -p tcp -e 1040 -c 1 -i 23 -a 1 -x {4.0 2.0 5 ------- null}
h -t 2.22688 -s 4 -d 0 -p tcp -e 1040 -c 1 -i 23 -a 1 -x {4.0 2.0 -1 ------- null}
- -t 2.23104 -s 3 -d 1 -p tcp -e 1040 -c 2 -i 22 -a 2 -x {3.0 2.1 8 ------- null}
h -t 2.23104 -s 3 -d 1 -p tcp -e 1040 -c 2 -i 22 -a 2 -x {3.0 2.1 -1 ------- null}
- -t 2.23104 -s 4 -d 0 -p tcp -e 1040 -c 1 -i 24 -a 1 -x {4.0 2.0 6 ------- null}
h -t 2.23104 -s 4 -d 0 -p tcp -e 1040 -c 1 -i 24 -a 1 -x {4.0 2.0 -1 ------- null}
r -t 2.2352 -s 1 -d 3 -p ack -e 40 -c 2 -i 17 -a 2 -x {2.1 3.0 4 ------- null}
+ -t 2.2352 -s 3 -d 1 -p tcp -e 1040 -c 2 -i 25 -a 2 -x {3.0 2.1 9 ------- null}
+ -t 2.2352 -s 3 -d 1 -p tcp -e 1040 -c 2 -i 26 -a 2 -x {3.0 2.1 10 ------- null}
- -t 2.2352 -s 3 -d 1 -p tcp -e 1040 -c 2 -i 25 -a 2 -x {3.0 2.1 9 ------- null}
h -t 2.2352 -s 3 -d 1 -p tcp -e 1040 -c 2 -i 25 -a 2 -x {3.0 2.1 -1 ------- null}
- -t 2.23936 -s 3 -d 1 -p tcp -e 1040 -c 2 -i 26 -a 2 -x {3.0 2.1 10 ------- null}
h -t 2.23936 -s 3 -d 1 -p tcp -e 1040 -c 2 -i 26 -a 2 -x {3.0 2.1 -1 ------- null}
r -t 2.24352 -s 1 -d 3 -p ack -e 40 -c 2 -i 18 -a 2 -x {2.1 3.0 4 ------- null}
+ -t 2.24352 -s 3 -d 1 -p tcp -e 1040 -c 2 -i 27 -a 2 -x {3.0 2.1 11 ------- null}
- -t 2.24352 -s 3 -d 1 -p tcp -e 1040 -c 2 -i 27 -a 2 -x {3.0 2.1 11 ------- null}
h -t 2.24352 -s 3 -d 1 -p tcp -e 1040 -c 2 -i 27 -a 2 -x {3.0 2.1 -1 ------- null}
r -t 2.32272 -s 4 -d 0 -p tcp -e 1040 -c 1 -i 19 -a 1 -x {4.0 2.0 3 ------- null}
+ -t 2.32272 -s 0 -d 1 -p tcp -e 1040 -c 1 -i 19 -a 1 -x {4.0 2.0 3 ------- null}
- -t 2.32272 -s 0 -d 1 -p tcp -e 1040 -c 1 -i 19 -a 1 -x {4.0 2.0 3 ------- null}
h -t 2.32272 -s 0 -d 1 -p tcp -e 1040 -c 1 -i 19 -a 1 -x {4.0 2.0 -1 ------- null}
r -t 2.32688 -s 4 -d 0 -p tcp -e 1040 -c 1 -i 20 -a 1 -x {4.0 2.0 4 ------- null}
+ -t 2.32688 -s 0 -d 1 -p tcp -e 1040 -c 1 -i 20 -a 1 -x {4.0 2.0 4 ------- null}
- -t 2.32688 -s 0 -d 1 -p tcp -e 1040 -c 1 -i 20 -a 1 -x {4.0 2.0 4 ------- null}
h -t 2.32688 -s 0 -d 1 -p tcp -e 1040 -c 1 -i 20 -a 1 -x {4.0 2.0 -1 ------- null}
r -t 2.33104 -s 3 -d 1 -p tcp -e 1040 -c 2 -i 21 -a 2 -x {3.0 2.1 7 ------- null}
+ -t 2.33104 -s 1 -d 2 -p tcp -e 1040 -c 2 -i 21 -a 2 -x {3.0 2.1 7 ------- null}
- -t 2.33104 -s 1 -d 2 -p tcp -e 1040 -c 2 -i 21 -a 2 -x {3.0 2.1 7 ------- null}
h -t 2.33104 -s 1 -d 2 -p tcp -e 1040 -c 2 -i 21 -a 2 -x {3.0 2.1 -1 ------- null}
r -t 2.33104 -s 4 -d 0 -p tcp -e 1040 -c 1 -i 23 -a 1 -x {4.0 2.0 5 ------- null}
+ -t 2.33104 -s 0 -d 1 -p tcp -e 1040 -c 1 -i 23 -a 1 -x {4.0 2.0 5 ------- null}
- -t 2.33104 -s 0 -d 1 -p tcp -e 1040 -c 1 -i 23 -a 1 -x {4.0 2.0 5 ------- null}
h -t 2.33104 -s 0 -d 1 -p tcp -e 1040 -c 1 -i 23 -a 1 -x {4.0 2.0 -1 ------- null}
r -t 2.3352 -s 3 -d 1 -p tcp -e 1040 -c 2 -i 22 -a 2 -x {3.0 2.1 8 ------- null}
+ -t 2.3352 -s 1 -d 2 -p tcp -e 1040 -c 2 -i 22 -a 2 -x {3.0 2.1 8 ------- null}
r -t 2.3352 -s 4 -d 0 -p tcp -e 1040 -c 1 -i 24 -a 1 -x {4.0 2.0 6 ------- null}
+ -t 2.3352 -s 0 -d 1 -p tcp -e 1040 -c 1 -i 24 -a 1 -x {4.0 2.0 6 ------- null}
- -t 2.3352 -s 0 -d 1 -p tcp -e 1040 -c 1 -i 24 -a 1 -x {4.0 2.0 6 ------- null}
h -t 2.3352 -s 0 -d 1 -p tcp -e 1040 -c 1 -i 24 -a 1 -x {4.0 2.0 -1 ------- null}
- -t 2.33936 -s 1 -d 2 -p tcp -e 1040 -c 2 -i 22 -a 2 -x {3.0 2.1 8 ------- null}
h -t 2.33936 -s 1 -d 2 -p tcp -e 1040 -c 2 -i 22 -a 2 -x {3.0 2.1 -1 ------- null}
r -t 2.33936 -s 3 -d 1 -p tcp -e 1040 -c 2 -i 25 -a 2 -x {3.0 2.1 9 ------- null}
+ -t 2.33936 -s 1 -d 2 -p tcp -e 1040 -c 2 -i 25 -a 2 -x {3.0 2.1 9 ------- null}
r -t 2.34352 -s 3 -d 1 -p tcp -e 1040 -c 2 -i 26 -a 2 -x {3.0 2.1 10 ------- null}
+ -t 2.34352 -s 1 -d 2 -p tcp -e 1040 -c 2 -i 26 -a 2 -x {3.0 2.1 10 ------- null}
d -t 2.34352 -s 1 -d 2 -p tcp -e 1040 -c 2 -i 26 -a 2 -x {3.0 2.1 10 ------- null}
- -t 2.34768 -s 1 -d 2 -p tcp -e 1040 -c 2 -i 25 -a 2 -x {3.0 2.1 9 ------- null}
h -t 2.34768 -s 1 -d 2 -p tcp -e 1040 -c 2 -i 25 -a 2 -x {3.0 2.1 -1 ------- null}
r -t 2.34768 -s 3 -d 1 -p tcp -e 1040 -c 2 -i 27 -a 2 -x {3.0 2.1 11 ------- null}
+ -t 2.34768 -s 1 -d 2 -p tcp -e 1040 -c 2 -i 27 -a 2 -x {3.0 2.1 11 ------- null}
- -t 2.356 -s 1 -d 2 -p tcp -e 1040 -c 2 -i 27 -a 2 -x {3.0 2.1 11 ------- null}
h -t 2.356 -s 1 -d 2 -p tcp -e 1040 -c 2 -i 27 -a 2 -x {3.0 2.1 -1 ------- null}
r -t 2.42688 -s 0 -d 1 -p tcp -e 1040 -c 1 -i 19 -a 1 -x {4.0 2.0 3 ------- null}
+ -t 2.42688 -s 1 -d 2 -p tcp -e 1040 -c 1 -i 19 -a 1 -x {4.0 2.0 3 ------- null}
- -t 2.42688 -s 1 -d 2 -p tcp -e 1040 -c 1 -i 19 -a 1 -x {4.0 2.0 3 ------- null}
h -t 2.42688 -s 1 -d 2 -p tcp -e 1040 -c 1 -i 19 -a 1 -x {4.0 2.0 -1 ------- null}
r -t 2.43104 -s 0 -d 1 -p tcp -e 1040 -c 1 -i 20 -a 1 -x {4.0 2.0 4 ------- null}
+ -t 2.43104 -s 1 -d 2 -p tcp -e 1040 -c 1 -i 20 -a 1 -x {4.0 2.0 4 ------- null}
- -t 2.4352 -s 1 -d 2 -p tcp -e 1040 -c 1 -i 20 -a 1 -x {4.0 2.0 4 ------- null}
h -t 2.4352 -s 1 -d 2 -p tcp -e 1040 -c 1 -i 20 -a 1 -x {4.0 2.0 -1 ------- null}
r -t 2.4352 -s 0 -d 1 -p tcp -e 1040 -c 1 -i 23 -a 1 -x {4.0 2.0 5 ------- null}
+ -t 2.4352 -s 1 -d 2 -p tcp -e 1040 -c 1 -i 23 -a 1 -x {4.0 2.0 5 ------- null}
r -t 2.43936 -s 1 -d 2 -p tcp -e 1040 -c 2 -i 21 -a 2 -x {3.0 2.1 7 ------- null}
+ -t 2.43936 -s 2 -d 1 -p ack -e 40 -c 2 -i 28 -a 2 -x {2.1 3.0 4 ------- null}
- -t 2.43936 -s 2 -d 1 -p ack -e 40 -c 2 -i 28 -a 2 -x {2.1 3.0 4 ------- null}
h -t 2.43936 -s 2 -d 1 -p ack -e 40 -c 2 -i 28 -a 2 -x {2.1 3.0 -1 ------- null}
r -t 2.43936 -s 0 -d 1 -p tcp -e 1040 -c 1 -i 24 -a 1 -x {4.0 2.0 6 ------- null}
+ -t 2.43936 -s 1 -d 2 -p tcp -e 1040 -c 1 -i 24 -a 1 -x {4.0 2.0 6 ------- null}
d -t 2.43936 -s 1 -d 2 -p tcp -e 1040 -c 1 -i 24 -a 1 -x {4.0 2.0 6 ------- null}
- -t 2.44352 -s 1 -d 2 -p tcp -e 1040 -c 1 -i 23 -a 1 -x {4.0 2.0 5 ------- null}
h -t 2.44352 -s 1 -d 2 -p tcp -e 1040 -c 1 -i 23 -a 1 -x {4.0 2.0 -1 ------- null}
r -t 2.44768 -s 1 -d 2 -p tcp -e 1040 -c 2 -i 22 -a 2 -x {3.0 2.1 8 ------- null}
+ -t 2.44768 -s 2 -d 1 -p ack -e 40 -c 2 -i 29 -a 2 -x {2.1 3.0 4 ------- null}
- -t 2.44768 -s 2 -d 1 -p ack -e 40 -c 2 -i 29 -a 2 -x {2.1 3.0 4 ------- null}
h -t 2.44768 -s 2 -d 1 -p ack -e 40 -c 2 -i 29 -a 2 -x {2.1 3.0 -1 ------- null}
r -t 2.456 -s 1 -d 2 -p tcp -e 1040 -c 2 -i 25 -a 2 -x {3.0 2.1 9 ------- null}
+ -t 2.456 -s 2 -d 1 -p ack -e 40 -c 2 -i 30 -a 2 -x {2.1 3.0 4 ------- null}
- -t 2.456 -s 2 -d 1 -p ack -e 40 -c 2 -i 30 -a 2 -x {2.1 3.0 4 ------- null}
h -t 2.456 -s 2 -d 1 -p ack -e 40 -c 2 -i 30 -a 2 -x {2.1 3.0 -1 ------- null}
r -t 2.46432 -s 1 -d 2 -p tcp -e 1040 -c 2 -i 27 -a 2 -x {3.0 2.1 11 ------- null}
+ -t 2.46432 -s 2 -d 1 -p ack -e 40 -c 2 -i 31 -a 2 -x {2.1 3.0 4 ------- null}
- -t 2.46432 -s 2 -d 1 -p ack -e 40 -c 2 -i 31 -a 2 -x {2.1 3.0 4 ------- null}
h -t 2.46432 -s 2 -d 1 -p ack -e 40 -c 2 -i 31 -a 2 -x {2.1 3.0 -1 ------- null}
r -t 2.5352 -s 1 -d 2 -p tcp -e 1040 -c 1 -i 19 -a 1 -x {4.0 2.0 3 ------- null}
+ -t 2.5352 -s 2 -d 1 -p ack -e 40 -c 1 -i 32 -a 1 -x {2.0 4.0 3 ------- null}
- -t 2.5352 -s 2 -d 1 -p ack -e 40 -c 1 -i 32 -a 1 -x {2.0 4.0 3 ------- null}
h -t 2.5352 -s 2 -d 1 -p ack -e 40 -c 1 -i 32 -a 1 -x {2.0 4.0 -1 ------- null}
r -t 2.53968 -s 2 -d 1 -p ack -e 40 -c 2 -i 28 -a 2 -x {2.1 3.0 4 ------- null}
+ -t 2.53968 -s 1 -d 3 -p ack -e 40 -c 2 -i 28 -a 2 -x {2.1 3.0 4 ------- null}
- -t 2.53968 -s 1 -d 3 -p ack -e 40 -c 2 -i 28 -a 2 -x {2.1 3.0 4 ------- null}
h -t 2.53968 -s 1 -d 3 -p ack -e 40 -c 2 -i 28 -a 2 -x {2.1 3.0 -1 ------- null}
r -t 2.54352 -s 1 -d 2 -p tcp -e 1040 -c 1 -i 20 -a 1 -x {4.0 2.0 4 ------- null}
+ -t 2.54352 -s 2 -d 1 -p ack -e 40 -c 1 -i 33 -a 1 -x {2.0 4.0 4 ------- null}
- -t 2.54352 -s 2 -d 1 -p ack -e 40 -c 1 -i 33 -a 1 -x {2.0 4.0 4 ------- null}
h -t 2.54352 -s 2 -d 1 -p ack -e 40 -c 1 -i 33 -a 1 -x {2.0 4.0 -1 ------- null}
r -t 2.548 -s 2 -d 1 -p ack -e 40 -c 2 -i 29 -a 2 -x {2.1 3.0 4 ------- null}
+ -t 2.548 -s 1 -d 3 -p ack -e 40 -c 2 -i 29 -a 2 -x {2.1 3.0 4 ------- null}
- -t 2.548 -s 1 -d 3 -p ack -e 40 -c 2 -i 29 -a 2 -x {2.1 3.0 4 ------- null}
h -t 2.548 -s 1 -d 3 -p ack -e 40 -c 2 -i 29 -a 2 -x {2.1 3.0 -1 ------- null}
r -t 2.55184 -s 1 -d 2 -p tcp -e 1040 -c 1 -i 23 -a 1 -x {4.0 2.0 5 ------- null}
+ -t 2.55184 -s 2 -d 1 -p ack -e 40 -c 1 -i 34 -a 1 -x {2.0 4.0 5 ------- null}
- -t 2.55184 -s 2 -d 1 -p ack -e 40 -c 1 -i 34 -a 1 -x {2.0 4.0 5 ------- null}
h -t 2.55184 -s 2 -d 1 -p ack -e 40 -c 1 -i 34 -a 1 -x {2.0 4.0 -1 ------- null}
r -t 2.55632 -s 2 -d 1 -p ack -e 40 -c 2 -i 30 -a 2 -x {2.1 3.0 4 ------- null}
+ -t 2.55632 -s 1 -d 3 -p ack -e 40 -c 2 -i 30 -a 2 -x {2.1 3.0 4 ------- null}
- -t 2.55632 -s 1 -d 3 -p ack -e 40 -c 2 -i 30 -a 2 -x {2.1 3.0 4 ------- null}
h -t 2.55632 -s 1 -d 3 -p ack -e 40 -c 2 -i 30 -a 2 -x {2.1 3.0 -1 ------- null}
r -t 2.56464 -s 2 -d 1 -p ack -e 40 -c 2 -i 31 -a 2 -x {2.1 3.0 4 ------- null}
+ -t 2.56464 -s 1 -d 3 -p ack -e 40 -c 2 -i 31 -a 2 -x {2.1 3.0 4 ------- null}
- -t 2.56464 -s 1 -d 3 -p ack -e 40 -c 2 -i 31 -a 2 -x {2.1 3.0 4 ------- null}
h -t 2.56464 -s 1 -d 3 -p ack -e 40 -c 2 -i 31 -a 2 -x {2.1 3.0 -1 ------- null}
r -t 2.63552 -s 2 -d 1 -p ack -e 40 -c 1 -i 32 -a 1 -x {2.0 4.0 3 ------- null}
+ -t 2.63552 -s 1 -d 0 -p ack -e 40 -c 1 -i 32 -a 1 -x {2.0 4.0 3 ------- null}
- -t 2.63552 -s 1 -d 0 -p ack -e 40 -c 1 -i 32 -a 1 -x {2.0 4.0 3 ------- null}
h -t 2.63552 -s 1 -d 0 -p ack -e 40 -c 1 -i 32 -a 1 -x {2.0 4.0 -1 ------- null}
r -t 2.63984 -s 1 -d 3 -p ack -e 40 -c 2 -i 28 -a 2 -x {2.1 3.0 4 ------- null}
+ -t 2.63984 -s 3 -d 1 -p tcp -e 1040 -c 2 -i 35 -a 2 -x {3.0 2.1 12 ------- null}
- -t 2.63984 -s 3 -d 1 -p tcp -e 1040 -c 2 -i 35 -a 2 -x {3.0 2.1 12 ------- null}
h -t 2.63984 -s 3 -d 1 -p tcp -e 1040 -c 2 -i 35 -a 2 -x {3.0 2.1 -1 ------- null}
r -t 2.64384 -s 2 -d 1 -p ack -e 40 -c 1 -i 33 -a 1 -x {2.0 4.0 4 ------- null}
+ -t 2.64384 -s 1 -d 0 -p ack -e 40 -c 1 -i 33 -a 1 -x {2.0 4.0 4 ------- null}
- -t 2.64384 -s 1 -d 0 -p ack -e 40 -c 1 -i 33 -a 1 -x {2.0 4.0 4 ------- null}
h -t 2.64384 -s 1 -d 0 -p ack -e 40 -c 1 -i 33 -a 1 -x {2.0 4.0 -1 ------- null}
r -t 2.64816 -s 1 -d 3 -p ack -e 40 -c 2 -i 29 -a 2 -x {2.1 3.0 4 ------- null}
+ -t 2.64816 -s 3 -d 1 -p tcp -e 1040 -c 2 -i 36 -a 2 -x {3.0 2.1 5 ---A--- null}
- -t 2.64816 -s 3 -d 1 -p tcp -e 1040 -c 2 -i 36 -a 2 -x {3.0 2.1 5 ---A--- null}
h -t 2.64816 -s 3 -d 1 -p tcp -e 1040 -c 2 -i 36 -a 2 -x {3.0 2.1 -1 ---A--- null}
r -t 2.65216 -s 2 -d 1 -p ack -e 40 -c 1 -i 34 -a 1 -x {2.0 4.0 5 ------- null}
+ -t 2.65216 -s 1 -d 0 -p ack -e 40 -c 1 -i 34 -a 1 -x {2.0 4.0 5 ------- null}
- -t 2.65216 -s 1 -d 0 -p ack -e 40 -c 1 -i 34 -a 1 -x {2.0 4.0 5 ------- null}
h -t 2.65216 -s 1 -d 0 -p ack -e 40 -c 1 -i 34 -a 1 -x {2.0 4.0 -1 ------- null}
r -t 2.65648 -s 1 -d 3 -p ack -e 40 -c 2 -i 30 -a 2 -x {2.1 3.0 4 ------- null}
r -t 2.6648 -s 1 -d 3 -p ack -e 40 -c 2 -i 31 -a 2 -x {2.1 3.0 4 ------- null}
r -t 2.73568 -s 1 -d 0 -p ack -e 40 -c 1 -i 32 -a 1 -x {2.0 4.0 3 ------- null}
+ -t 2.73568 -s 0 -d 4 -p ack -e 40 -c 1 -i 32 -a 1 -x {2.0 4.0 3 ------- null}
- -t 2.73568 -s 0 -d 4 -p ack -e 40 -c 1 -i 32 -a 1 -x {2.0 4.0 3 ------- null}
h -t 2.73568 -s 0 -d 4 -p ack -e 40 -c 1 -i 32 -a 1 -x {2.0 4.0 -1 ------- null}
r -t 2.744 -s 1 -d 0 -p ack -e 40 -c 1 -i 33 -a 1 -x {2.0 4.0 4 ------- null}
+ -t 2.744 -s 0 -d 4 -p ack -e 40 -c 1 -i 33 -a 1 -x {2.0 4.0 4 ------- null}
- -t 2.744 -s 0 -d 4 -p ack -e 40 -c 1 -i 33 -a 1 -x {2.0 4.0 4 ------- null}
h -t 2.744 -s 0 -d 4 -p ack -e 40 -c 1 -i 33 -a 1 -x {2.0 4.0 -1 ------- null}
r -t 2.744 -s 3 -d 1 -p tcp -e 1040 -c 2 -i 35 -a 2 -x {3.0 2.1 12 ------- null}
+ -t 2.744 -s 1 -d 2 -p tcp -e 1040 -c 2 -i 35 -a 2 -x {3.0 2.1 12 ------- null}
- -t 2.744 -s 1 -d 2 -p tcp -e 1040 -c 2 -i 35 -a 2 -x {3.0 2.1 12 ------- null}
h -t 2.744 -s 1 -d 2 -p tcp -e 1040 -c 2 -i 35 -a 2 -x {3.0 2.1 -1 ------- null}
r -t 2.75232 -s 1 -d 0 -p ack -e 40 -c 1 -i 34 -a 1 -x {2.0 4.0 5 ------- null}
+ -t 2.75232 -s 0 -d 4 -p ack -e 40 -c 1 -i 34 -a 1 -x {2.0 4.0 5 ------- null}
- -t 2.75232 -s 0 -d 4 -p ack -e 40 -c 1 -i 34 -a 1 -x {2.0 4.0 5 ------- null}
h -t 2.75232 -s 0 -d 4 -p ack -e 40 -c 1 -i 34 -a 1 -x {2.0 4.0 -1 ------- null}
r -t 2.75232 -s 3 -d 1 -p tcp -e 1040 -c 2 -i 36 -a 2 -x {3.0 2.1 5 ---A--- null}
+ -t 2.75232 -s 1 -d 2 -p tcp -e 1040 -c 2 -i 36 -a 2 -x {3.0 2.1 5 ---A--- null}
- -t 2.75232 -s 1 -d 2 -p tcp -e 1040 -c 2 -i 36 -a 2 -x {3.0 2.1 5 ---A--- null}
h -t 2.75232 -s 1 -d 2 -p tcp -e 1040 -c 2 -i 36 -a 2 -x {3.0 2.1 -1 ---A--- null}
r -t 2.83584 -s 0 -d 4 -p ack -e 40 -c 1 -i 32 -a 1 -x {2.0 4.0 3 ------- null}
+ -t 2.83584 -s 4 -d 0 -p tcp -e 1040 -c 1 -i 37 -a 1 -x {4.0 2.0 7 ------- null}
- -t 2.83584 -s 4 -d 0 -p tcp -e 1040 -c 1 -i 37 -a 1 -x {4.0 2.0 7 ------- null}
h -t 2.83584 -s 4 -d 0 -p tcp -e 1040 -c 1 -i 37 -a 1 -x {4.0 2.0 -1 ------- null}
+ -t 2.83584 -s 4 -d 0 -p tcp -e 1040 -c 1 -i 38 -a 1 -x {4.0 2.0 8 ------- null}
- -t 2.84 -s 4 -d 0 -p tcp -e 1040 -c 1 -i 38 -a 1 -x {4.0 2.0 8 ------- null}
h -t 2.84 -s 4 -d 0 -p tcp -e 1040 -c 1 -i 38 -a 1 -x {4.0 2.0 -1 ------- null}
r -t 2.84416 -s 0 -d 4 -p ack -e 40 -c 1 -i 33 -a 1 -x {2.0 4.0 4 ------- null}
+ -t 2.84416 -s 4 -d 0 -p tcp -e 1040 -c 1 -i 39 -a 1 -x {4.0 2.0 9 ------- null}
+ -t 2.84416 -s 4 -d 0 -p tcp -e 1040 -c 1 -i 40 -a 1 -x {4.0 2.0 10 ------- null}
- -t 2.84416 -s 4 -d 0 -p tcp -e 1040 -c 1 -i 39 -a 1 -x {4.0 2.0 9 ------- null}
h -t 2.84416 -s 4 -d 0 -p tcp -e 1040 -c 1 -i 39 -a 1 -x {4.0 2.0 -1 ------- null}
- -t 2.84832 -s 4 -d 0 -p tcp -e 1040 -c 1 -i 40 -a 1 -x {4.0 2.0 10 ------- null}
h -t 2.84832 -s 4 -d 0 -p tcp -e 1040 -c 1 -i 40 -a 1 -x {4.0 2.0 -1 ------- null}
r -t 2.85232 -s 1 -d 2 -p tcp -e 1040 -c 2 -i 35 -a 2 -x {3.0 2.1 12 ------- null}
+ -t 2.85232 -s 2 -d 1 -p ack -e 40 -c 2 -i 41 -a 2 -x {2.1 3.0 4 ------- null}
- -t 2.85232 -s 2 -d 1 -p ack -e 40 -c 2 -i 41 -a 2 -x {2.1 3.0 4 ------- null}
h -t 2.85232 -s 2 -d 1 -p ack -e 40 -c 2 -i 41 -a 2 -x {2.1 3.0 -1 ------- null}
r -t 2.85248 -s 0 -d 4 -p ack -e 40 -c 1 -i 34 -a 1 -x {2.0 4.0 5 ------- null}
+ -t 2.85248 -s 4 -d 0 -p tcp -e 1040 -c 1 -i 42 -a 1 -x {4.0 2.0 11 ------- null}
+ -t 2.85248 -s 4 -d 0 -p tcp -e 1040 -c 1 -i 43 -a 1 -x {4.0 2.0 12 ------- null}
- -t 2.85248 -s 4 -d 0 -p tcp -e 1040 -c 1 -i 42 -a 1 -x {4.0 2.0 11 ------- null}
h -t 2.85248 -s 4 -d 0 -p tcp -e 1040 -c 1 -i 42 -a 1 -x {4.0 2.0 -1 ------- null}
- -t 2.85664 -s 4 -d 0 -p tcp -e 1040 -c 1 -i 43 -a 1 -x {4.0 2.0 12 ------- null}
h -t 2.85664 -s 4 -d 0 -p tcp -e 1040 -c 1 -i 43 -a 1 -x {4.0 2.0 -1 ------- null}
r -t 2.86064 -s 1 -d 2 -p tcp -e 1040 -c 2 -i 36 -a 2 -x {3.0 2.1 5 ---A--- null}