+ 1 4 0 tcp 40 ------- 1 4.0 2.0 0 0
- 1 4 0 tcp 40 ------- 1 4.0 2.0 0 0
+ 1 3 1 tcp 40 ------- 2 3.0 2.1 0 1
- 1 3 1 tcp 40 ------- 2 3.0 2.1 0 1
r 1.10016 4 0 tcp 40 ------- 1 4.0 2.0 0 0
+ 1.10016 0 1 tcp 40 ------- 1 4.0 2.0 0 0
- 1.10016 0 1 tcp 40 ------- 1 4.0 2.0 0 0
r 1.10016 3 1 tcp 40 ------- 2 3.0 2.1 0 1
+ 1.10016 1 2 tcp 40 ------- 2 3.0 2.1 0 1
- 1.10016 1 2 tcp 40 ------- 2 3.0 2.1 0 1
r 1.20032 0 1 tcp 40 ------- 1 4.0 2.0 0 0
+ 1.20032 1 2 tcp 40 ------- 1 4.0 2.0 0 0
- 1.20032 1 2 tcp 40 ------- 1 4.0 2.0 0 0
r 1.20048 1 2 tcp 40 ------- 2 3.0 2.1 0 1
+ 1.20048 2 1 ack 40 ------- 2 2.1 3.0 0 2
- 1.20048 2 1 ack 40 ------- 2 2.1 3.0 0 2
r 1.30064 1 2 tcp 40 ------- 1 4.0 2.0 0 0
+ 1.30064 2 1 ack 40 ------- 1 2.0 4.0 0 3
- 1.30064 2 1 ack 40 ------- 1 2.0 4.0 0 3
r 1.3008 2 1 ack 40 ------- 2 2.1 3.0 0 2
+ 1.3008 1 3 ack 40 ------- 2 2.1 3.0 0 2
- 1.3008 1 3 ack 40 ------- 2 2.1 3.0 0 2
r 1.40096 2 1 ack 40 ------- 1 2.0 4.0 0 3
+ 1.40096 1 0 ack 40 ------- 1 2.0 4.0 0 3
- 1.40096 1 0 ack 40 ------- 1 2.0 4.0 0 3
r 1.40096 1 3 ack 40 ------- 2 2.1 3.0 0 2
+ 1.40096 3 1 tcp 1040 ------- 2 3.0 2.1 1 4
- 1.40096 3 1 tcp 1040 ------- 2 3.0 2.1 1 4
+ 1.40096 3 1 tcp 1040 ------- 2 3.0 2.1 2 5
- 1.40512 3 1 tcp 1040 ------- 2 3.0 2.1 2 5
r 1.50112 1 0 ack 40 ------- 1 2.0 4.0 0 3
+ 1.50112 0 4 ack 40 ------- 1 2.0 4.0 0 3
- 1.50112 0 4 ack 40 ------- 1 2.0 4.0 0 3
r 1.50512 3 1 tcp 1040 ------- 2 3.0 2.1 1 4
+ 1.50512 1 2 tcp 1040 ------- 2 3.0 2.1 1 4
- 1.50512 1 2 tcp 1040 ------- 2 3.0 2.1 1 4
r 1.50928 3 1 tcp 1040 ------- 2 3.0 2.1 2 5
+ 1.50928 1 2 tcp 1040 ------- 2 3.0 2.1 2 5
- 1.51344 1 2 tcp 1040 ------- 2 3.0 2.1 2 5
r 1.60128 0 4 ack 40 ------- 1 2.0 4.0 0 3
+ 1.60128 4 0 tcp 1040 ------- 1 4.0 2.0 1 6
- 1.60128 4 0 tcp 1040 ------- 1 4.0 2.0 1 6
+ 1.60128 4 0 tcp 1040 ------- 1 4.0 2.0 2 7
- 1.60544 4 0 tcp 1040 ------- 1 4.0 2.0 2 7
r 1.61344 1 2 tcp 1040 ------- 2 3.0 2.1 1 4
+ 1.61344 2 1 ack 40 ------- 2 2.1 3.0 1 8
- 1.61344 2 1 ack 40 ------- 2 2.1 3.0 1 8
r 1.62176 1 2 tcp 1040 ------- 2 3.0 2.1 2 5
+ 1.62176 2 1 ack 40 ------- 2 2.1 3.0 2 9
- 1.62176 2 1 ack 40 ------- 2 2.1 3.0 2 9
r 1.70544 4 0 tcp 1040 ------- 1 4.0 2.0 1 6
+ 1.70544 0 1 tcp 1040 ------- 1 4.0 2.0 1 6
- 1.70544 0 1 tcp 1040 ------- 1 4.0 2.0 1 6
r 1.7096 4 0 tcp 1040 ------- 1 4.0 2.0 2 7
+ 1.7096 0 1 tcp 1040 ------- 1 4.0 2.0 2 7
- 1.7096 0 1 tcp 1040 ------- 1 4.0 2.0 2 7
r 1.71376 2 1 ack 40 ------- 2 2.1 3.0 1 8
+ 1.71376 1 3 ack 40 ------- 2 2.1 3.0 1 8
- 1.71376 1 3 ack 40 ------- 2 2.1 3.0 1 8
r 1.72208 2 1 ack 40 ------- 2 2.1 3.0 2 9
+ 1.72208 1 3 ack 40 ------- 2 2.1 3.0 2 9
- 1.72208 1 3 ack 40 ------- 2 2.1 3.0 2 9
r 1.8096 0 1 tcp 1040 ------- 1 4.0 2.0 1 6
+ 1.8096 1 2 tcp 1040 ------- 1 4.0 2.0 1 6
- 1.8096 1 2 tcp 1040 ------- 1 4.0 2.0 1 6
r 1.81376 0 1 tcp 1040 ------- 1 4.0 2.0 2 7
+ 1.81376 1 2 tcp 1040 ------- 1 4.0 2.0 2 7
r 1.81392 1 3 ack 40 ------- 2 2.1 3.0 1 8
+ 1.81392 3 1 tcp 1040 ------- 2 3.0 2.1 3 10
- 1.81392 3 1 tcp 1040 ------- 2 3.0 2.1 3 10
+ 1.81392 3 1 tcp 1040 ------- 2 3.0 2.1 4 11
- 1.81792 1 2 tcp 1040 ------- 1 4.0 2.0 2 7
- 1.81808 3 1 tcp 1040 ------- 2 3.0 2.1 4 11
r 1.82224 1 3 ack 40 ------- 2 2.1 3.0 2 9
+ 1.82224 3 1 tcp 1040 ------- 2 3.0 2.1 5 12
- 1.82224 3 1 tcp 1040 ------- 2 3.0 2.1 5 12
+ 1.82224 3 1 tcp 1040 ------- 2 3.0 2.1 6 13
- 1.8264 3 1 tcp 1040 ------- 2 3.0 2.1 6 13
r 1.91792 1 2 tcp 1040 ------- 1 4.0 2.0 1 6
+ 1.91792 2 1 ack 40 ------- 1 2.0 4.0 1 14
- 1.91792 2 1 ack 40 ------- 1 2.0 4.0 1 14
r 1.91808 3 1 tcp 1040 ------- 2 3.0 2.1 3 10
+ 1.91808 1 2 tcp 1040 ------- 2 3.0 2.1 3 10
- 1.91808 1 2 tcp 1040 ------- 2 3.0 2.1 3 10
r 1.92224 3 1 tcp 1040 ------- 2 3.0 2.1 4 11
+ 1.92224 1 2 tcp 1040 ------- 2 3.0 2.1 4 11
r 1.92624 1 2 tcp 1040 ------- 1 4.0 2.0 2 7
+ 1.92624 2 1 ack 40 ------- 1 2.0 4.0 2 15
- 1.92624 2 1 ack 40 ------- 1 2.0 4.0 2 15
r 1.9264 3 1 tcp 1040 ------- 2 3.0 2.1 5 12
+ 1.9264 1 2 tcp 1040 ------- 2 3.0 2.1 5 12
d 1.9264 1 2 tcp 1040 ------- 2 3.0 2.1 5 12
- 1.9264 1 2 tcp 1040 ------- 2 3.0 2.1 4 11
r 1.93056 3 1 tcp 1040 ------- 2 3.0 2.1 6 13
+ 1.93056 1 2 tcp 1040 ------- 2 3.0 2.1 6 13
- 1.93472 1 2 tcp 1040 ------- 2 3.0 2.1 6 13
r 2.01824 2 1 ack 40 ------- 1 2.0 4.0 1 14
+ 2.01824 1 0 ack 40 ------- 1 2.0 4.0 1 14
- 2.01824 1 0 ack 40 ------- 1 2.0 4.0 1 14
r 2.0264 1 2 tcp 1040 ------- 2 3.0 2.1 3 10
+ 2.0264 2 1 ack 40 ------- 2 2.1 3.0 3 16
- 2.0264 2 1 ack 40 ------- 2 2.1 3.0 3 16
r 2.02656 2 1 ack 40 ------- 1 2.0 4.0 2 15
+ 2.02656 1 0 ack 40 ------- 1 2.0 4.0 2 15
- 2.02656 1 0 ack 40 ------- 1 2.0 4.0 2 15
r 2.03472 1 2 tcp 1040 ------- 2 3.0 2.1 4 11
+ 2.03472 2 1 ack 40 ------- 2 2.1 3.0 4 17
- 2.03472 2 1 ack 40 ------- 2 2.1 3.0 4 17
r 2.04304 1 2 tcp 1040 ------- 2 3.0 2.1 6 13
+ 2.04304 2 1 ack 40 ------- 2 2.1 3.0 4 18
- 2.04304 2 1 ack 40 ------- 2 2.1 3.0 4 18
r 2.1184 1 0 ack 40 ------- 1 2.0 4.0 1 14
+ 2.1184 0 4 ack 40 ------- 1 2.0 4.0 1 14
- 2.1184 0 4 ack 40 ------- 1 2.0 4.0 1 14
r 2.12672 2 1 ack 40 ------- 2 2.1 3.0 3 16
+ 2.12672 1 3 ack 40 ------- 2 2.1 3.0 3 16
- 2.12672 1 3 ack 40 ------- 2 2.1 3.0 3 16
r 2.12672 1 0 ack 40 ------- 1 2.0 4.0 2 15
+ 2.12672 0 4 ack 40 ------- 1 2.0 4.0 2 15
- 2.12672 0 4 ack 40 ------- 1 2.0 4.0 2 15
r 2.13504 2 1 ack 40 ------- 2 2.1 3.0 4 17
+ 2.13504 1 3 ack 40 ------- 2 2.1 3.0 4 17
- 2.13504 1 3 ack 40 ------- 2 2.1 3.0 4 17
r 2.14336 2 1 ack 40 ------- 2 2.1 3.0 4 18
+ 2.14336 1 3 ack 40 ------- 2 2.1 3.0 4 18
- 2.14336 1 3 ack 40 ------- 2 2.1 3.0 4 18
r 2.21856 0 4 ack 40 ------- 1 2.0 4.0 1 14
+ 2.21856 4 0 tcp 1040 ------- 1 4.0 2.0 3 19
- 2.21856 4 0 tcp 1040 ------- 1 4.0 2.0 3 19
+ 2.21856 4 0 tcp 1040 ------- 1 4.0 2.0 4 20
- 2.22272 4 0 tcp 1040 ------- 1 4.0 2.0 4 20
r 2.22688 1 3 ack 40 ------- 2 2.1 3.0 3 16
+ 2.22688 3 1 tcp 1040 ------- 2 3.0 2.1 7 21
- 2.22688 3 1 tcp 1040 ------- 2 3.0 2.1 7 21
+ 2.22688 3 1 tcp 1040 ------- 2 3.0 2.1 8 22
r 2.22688 0 4 ack 40 ------- 1 2.0 4.0 2 15
+ 2.22688 4 0 tcp 1040 ------- 1 4.0 2.0 5 23
+ 2.22688 4 0 tcp 1040 ------- 1 4.0 2.0 6 24
- 2.22688 4 0 tcp 1040 ------- 1 4.0 2.0 5 23
- 2.23104 3 1 tcp 1040 ------- 2 3.0 2.1 8 22
- 2.23104 4 0 tcp 1040 ------- 1 4.0 2.0 6 24
r 2.2352 1 3 ack 40 ------- 2 2.1 3.0 4 17
+ 2.2352 3 1 tcp 1040 ------- 2 3.0 2.1 9 25
+ 2.2352 3 1 tcp 1040 ------- 2 3.0 2.1 10 26
- 2.2352 3 1 tcp 1040 ------- 2 3.0 2.1 9 25
- 2.23936 3 1 tcp 1040 ------- 2 3.0 2.1 10 26
r 2.24352 1 3 ack 40 ------- 2 2.1 3.0 4 18
+ 2.24352 3 1 tcp 1040 ------- 2 3.0 2.1 11 27
- 2.24352 3 1 tcp 1040 ------- 2 3.0 2.1 11 27
r 2.32272 4 0 tcp 1040 ------- 1 4.0 2.0 3 19
+ 2.32272 0 1 tcp 1040 ------- 1 4.0 2.0 3 19
- 2.32272 0 1 tcp 1040 ------- 1 4.0 2.0 3 19
r 2.32688 4 0 tcp 1040 ------- 1 4.0 2.0 4 20
+ 2.32688 0 1 tcp 1040 ------- 1 4.0 2.0 4 20
- 2.32688 0 1 tcp 1040 ------- 1 4.0 2.0 4 20
r 2.33104 3 1 tcp 1040 ------- 2 3.0 2.1 7 21
+ 2.33104 1 2 tcp 1040 ------- 2 3.0 2.1 7 21
- 2.33104 1 2 tcp 1040 ------- 2 3.0 2.1 7 21
r 2.33104 4 0 tcp 1040 ------- 1 4.0 2.0 5 23
+ 2.33104 0 1 tcp 1040 ------- 1 4.0 2.0 5 23
- 2.33104 0 1 tcp 1040 ------- 1 4.0 2.0 5 23
r 2.3352 3 1 tcp 1040 ------- 2 3.0 2.1 8 22
+ 2.3352 1 2 tcp 1040 ------- 2 3.0 2.1 8 22
r 2.3352 4 0 tcp 1040 ------- 1 4.0 2.0 6 24
+ 2.3352 0 1 tcp 1040 ------- 1 4.0 2.0 6 24
- 2.3352 0 1 tcp 1040 ------- 1 4.0 2.0 6 24
- 2.33936 1 2 tcp 1040 ------- 2 3.0 2.1 8 22
r 2.33936 3 1 tcp 1040 ------- 2 3.0 2.1 9 25
+ 2.33936 1 2 tcp 1040 ------- 2 3.0 2.1 9 25
r 2.34352 3 1 tcp 1040 ------- 2 3.0 2.1 10 26
+ 2.34352 1 2 tcp 1040 ------- 2 3.0 2.1 10 26
d 2.34352 1 2 tcp 1040 ------- 2 3.0 2.1 10 26
- 2.34768 1 2 tcp 1040 ------- 2 3.0 2.1 9 25
r 2.34768 3 1 tcp 1040 ------- 2 3.0 2.1 11 27
+ 2.34768 1 2 tcp 1040 ------- 2 3.0 2.1 11 27
- 2.356 1 2 tcp 1040 ------- 2 3.0 2.1 11 27
r 2.42688 0 1 tcp 1040 ------- 1 4.0 2.0 3 19
+ 2.42688 1 2 tcp 1040 ------- 1 4.0 2.0 3 19
- 2.42688 1 2 tcp 1040 ------- 1 4.0 2.0 3 19
r 2.43104 0 1 tcp 1040 ------- 1 4.0 2.0 4 20
+ 2.43104 1 2 tcp 1040 ------- 1 4.0 2.0 4 20
- 2.4352 1 2 tcp 1040 ------- 1 4.0 2.0 4 20
r 2.4352 0 1 tcp 1040 ------- 1 4.0 2.0 5 23
+ 2.4352 1 2 tcp 1040 ------- 1 4.0 2.0 5 23
r 2.43936 1 2 tcp 1040 ------- 2 3.0 2.1 7 21
+ 2.43936 2 1 ack 40 ------- 2 2.1 3.0 4 28
- 2.43936 2 1 ack 40 ------- 2 2.1 3.0 4 28
r 2.43936 0 1 tcp 1040 ------- 1 4.0 2.0 6 24
+ 2.43936 1 2 tcp 1040 ------- 1 4.0 2.0 6 24
d 2.43936 1 2 tcp 1040 ------- 1 4.0 2.0 6 24
- 2.44352 1 2 tcp 1040 ------- 1 4.0 2.0 5 23
r 2.44768 1 2 tcp 1040 ------- 2 3.0 2.1 8 22
+ 2.44768 2 1 ack 40 ------- 2 2.1 3.0 4 29
- 2.44768 2 1 ack 40 ------- 2 2.1 3.0 4 29
r 2.456 1 2 tcp 1040 ------- 2 3.0 2.1 9 25
+ 2.456 2 1 ack 40 ------- 2 2.1 3.0 4 30
- 2.456 2 1 ack 40 ------- 2 2.1 3.0 4 30
r 2.46432 1 2 tcp 1040 ------- 2 3.0 2.1 11 27
+ 2.46432 2 1 ack 40 ------- 2 2.1 3.0 4 31
- 2.46432 2 1 ack 40 ------- 2 2.1 3.0 4 31
r 2.5352 1 2 tcp 1040 ------- 1 4.0 2.0 3 19
+ 2.5352 2 1 ack 40 ------- 1 2.0 4.0 3 32
- 2.5352 2 1 ack 40 ------- 1 2.0 4.0 3 32
r 2.53968 2 1 ack 40 ------- 2 2.1 3.0 4 28
+ 2.53968 1 3 ack 40 ------- 2 2.1 3.0 4 28
- 2.53968 1 3 ack 40 ------- 2 2.1 3.0 4 28
r 2.54352 1 2 tcp 1040 ------- 1 4.0 2.0 4 20
+ 2.54352 2 1 ack 40 ------- 1 2.0 4.0 4 33
- 2.54352 2 1 ack 40 ------- 1 2.0 4.0 4 33
r 2.548 2 1 ack 40 ------- 2 2.1 3.0 4 29
+ 2.548 1 3 ack 40 ------- 2 2.1 3.0 4 29
- 2.548 1 3 ack 40 ------- 2 2.1 3.0 4 29
r 2.55184 1 2 tcp 1040 ------- 1 4.0 2.0 5 23
+ 2.55184 2 1 ack 40 ------- 1 2.0 4.0 5 34
- 2.55184 2 1 ack 40 ------- 1 2.0 4.0 5 34
r 2.55632 2 1 ack 40 ------- 2 2.1 3.0 4 30
+ 2.55632 1 3 ack 40 ------- 2 2.1 3.0 4 30
- 2.55632 1 3 ack 40 ------- 2 2.1 3.0 4 30
r 2.56464 2 1 ack 40 ------- 2 2.1 3.0 4 31
+ 2.56464 1 3 ack 40 ------- 2 2.1 3.0 4 31
- 2.56464 1 3 ack 40 ------- 2 2.1 3.0 4 31
r 2.63552 2 1 ack 40 ------- 1 2.0 4.0 3 32
+ 2.63552 1 0 ack 40 ------- 1 2.0 4.0 3 32
- 2.63552 1 0 ack 40 ------- 1 2.0 4.0 3 32
r 2.63984 1 3 ack 40 ------- 2 2.1 3.0 4 28
+ 2.63984 3 1 tcp 1040 ------- 2 3.0 2.1 12 35
- 2.63984 3 1 tcp 1040 ------- 2 3.0 2.1 12 35
r 2.64384 2 1 ack 40 ------- 1 2.0 4.0 4 33
+ 2.64384 1 0 ack 40 ------- 1 2.0 4.0 4 33
- 2.64384 1 0 ack 40 ------- 1 2.0 4.0 4 33
r 2.64816 1 3 ack 40 ------- 2 2.1 3.0 4 29
+ 2.64816 3 1 tcp 1040 ---A--- 2 3.0 2.1 5 36
- 2.64816 3 1 tcp 1040 ---A--- 2 3.0 2.1 5 36
r 2.65216 2 1 ack 40 ------- 1 2.0 4.0 5 34
+ 2.65216 1 0 ack 40 ------- 1 2.0 4.0 5 34
- 2.65216 1 0 ack 40 ------- 1 2.0 4.0 5 34
r 2.65648 1 3 ack 40 ------- 2 2.1 3.0 4 30
r 2.6648 1 3 ack 40 ------- 2 2.1 3.0 4 31
r 2.73568 1 0 ack 40 ------- 1 2.0 4.0 3 32
+ 2.73568 0 4 ack 40 ------- 1 2.0 4.0 3 32
- 2.73568 0 4 ack 40 ------- 1 2.0 4.0 3 32
r 2.744 1 0 ack 40 ------- 1 2.0 4.0 4 33
+ 2.744 0 4 ack 40 ------- 1 2.0 4.0 4 33
- 2.744 0 4 ack 40 ------- 1 2.0 4.0 4 33
r 2.744 3 1 tcp 1040 ------- 2 3.0 2.1 12 35
+ 2.744 1 2 tcp 1040 ------- 2 3.0 2.1 12 35
- 2.744 1 2 tcp 1040 ------- 2 3.0 2.1 12 35
r 2.75232 1 0 ack 40 ------- 1 2.0 4.0 5 34
+ 2.75232 0 4 ack 40 ------- 1 2.0 4.0 5 34
- 2.75232 0 4 ack 40 ------- 1 2.0 4.0 5 34
r 2.75232 3 1 tcp 1040 ---A--- 2 3.0 2.1 5 36
+ 2.75232 1 2 tcp 1040 ---A--- 2 3.0 2.1 5 36
- 2.75232 1 2 tcp 1040 ---A--- 2 3.0 2.1 5 36
r 2.83584 0 4 ack 40 ------- 1 2.0 4.0 3 32
+ 2.83584 4 0 tcp 1040 ------- 1 4.0 2.0 7 37
- 2.83584 4 0 tcp 1040 ------- 1 4.0 2.0 7 37
+ 2.83584 4 0 tcp 1040 ------- 1 4.0 2.0 8 38
- 2.84 4 0 tcp 1040 ------- 1 4.0 2.0 8 38
r 2.84416 0 4 ack 40 ------- 1 2.0 4.0 4 33
+ 2.84416 4 0 tcp 1040 ------- 1 4.0 2.0 9 39
+ 2.84416 4 0 tcp 1040 ------- 1 4.0 2.0 10 40
- 2.84416 4 0 tcp 1040 ------- 1 4.0 2.0 9 39
- 2.84832 4 0 tcp 1040 ------- 1 4.0 2.0 10 40
r 2.85232 1 2 tcp 1040 ------- 2 3.0 2.1 12 35
+ 2.85232 2 1 ack 40 ------- 2 2.1 3.0 4 41
- 2.85232 2 1 ack 40 ------- 2 2.1 3.0 4 41
r 2.85248 0 4 ack 40 ------- 1 2.0 4.0 5 34
+ 2.85248 4 0 tcp 1040 ------- 1 4.0 2.0 11 42
+ 2.85248 4 0 tcp 1040 ------- 1 4.0 2.0 12 43
- 2.85248 4 0 tcp 1040 ------- 1 4.0 2.0 11 42
- 2.85664 4 0 tcp 1040 ------- 1 4.0 2.0 12 43
r 2.86064 1 2 tcp 1040 ---A--- 2 3.0 2.1 5 36
+ 2.86064 2 1 ack 40 ------- 2 2.1 3.0 9 44
- 2.86064 2 1 ack 40 ------- 2 2.1 3.0 9 44
r 2.94 4 0 tcp 1040 ------- 1 4.0 2.0 7 37
+ 2.94 0 1 tcp 1040 ------- 1 4.0 2.0 7 37
- 2.94 0 1 tcp 1040 ------- 1 4.0 2.0 7 37
r 2.94416 4 0 tcp 1040 ------- 1 4.0 2.0 8 38
+ 2.94416 0 1 tcp 1040 ------- 1 4.0 2.0 8 38
- 2.94416 0 1 tcp 1040 ------- 1 4.0 2.0 8 38
r 2.94832 4 0 tcp 1040 ------- 1 4.0 2.0 9 39
+ 2.94832 0 1 tcp 1040 ------- 1 4.0 2.0 9 39
- 2.94832 0 1 tcp 1040 ------- 1 4.0 2.0 9 39
r 2.95248 4 0 tcp 1040 ------- 1 4.0 2.0 10 40
+ 2.95248 0 1 tcp 1040 ------- 1 4.0 2.0 10 40
- 2.95248 0 1 tcp 1040 ------- 1 4.0 2.0 10 40
r 2.95264 2 1 ack 40 ------- 2 2.1 3.0 4 41
+ 2.95264 1 3 ack 40 ------- 2 2.1 3.0 4 41
- 2.95264 1 3 ack 40 ------- 2 2.1 3.0 4 41
r 2.95664 4 0 tcp 1040 ------- 1 4.0 2.0 11 42
+ 2.95664 0 1 tcp 1040 ------- 1 4.0 2.0 11 42
- 2.95664 0 1 tcp 1040 ------- 1 4.0 2.0 11 42
r 2.9608 4 0 tcp 1040 ------- 1 4.0 2.0 12 43
+ 2.9608 0 1 tcp 1040 ------- 1 4.0 2.0 12 43
- 2.9608 0 1 tcp 1040 ------- 1 4.0 2.0 12 43
r 2.96096 2 1 ack 40 ------- 2 2.1 3.0 9 44
+ 2.96096 1 3 ack 40 ------- 2 2.1 3.0 9 44
- 2.96096 1 3 ack 40 ------- 2 2.1 3.0 9 44
r 3.04416 0 1 tcp 1040 ------- 1 4.0 2.0 7 37
+ 3.04416 1 2 tcp 1040 ------- 1 4.0 2.0 7 37
- 3.04416 1 2 tcp 1040 ------- 1 4.0 2.0 7 37
r 3.04832 0 1 tcp 1040 ------- 1 4.0 2.0 8 38
+ 3.04832 1 2 tcp 1040 ------- 1 4.0 2.0 8 38
- 3.05248 1 2 tcp 1040 ------- 1 4.0 2.0 8 38
r 3.05248 0 1 tcp 1040 ------- 1 4.0 2.0 9 39
+ 3.05248 1 2 tcp 1040 ------- 1 4.0 2.0 9 39
r 3.0528 1 3 ack 40 ------- 2 2.1 3.0 4 41
r 3.05664 0 1 tcp 1040 ------- 1 4.0 2.0 10 40
+ 3.05664 1 2 tcp 1040 ------- 1 4.0 2.0 10 40
d 3.05664 1 2 tcp 1040 ------- 1 4.0 2.0 10 40
- 3.0608 1 2 tcp 1040 ------- 1 4.0 2.0 9 39
r 3.0608 0 1 tcp 1040 ------- 1 4.0 2.0 11 42
+ 3.0608 1 2 tcp 1040 ------- 1 4.0 2.0 11 42
r 3.06112 1 3 ack 40 ------- 2 2.1 3.0 9 44
+ 3.06112 3 1 tcp 1040 ------- 2 3.0 2.1 10 45
- 3.06112 3 1 tcp 1040 ------- 2 3.0 2.1 10 45
+ 3.06112 3 1 tcp 1040 ------- 2 3.0 2.1 11 46
r 3.06496 0 1 tcp 1040 ------- 1 4.0 2.0 12 43
+ 3.06496 1 2 tcp 1040 ------- 1 4.0 2.0 12 43
d 3.06496 1 2 tcp 1040 ------- 1 4.0 2.0 12 43
- 3.06528 3 1 tcp 1040 ------- 2 3.0 2.1 11 46
- 3.06912 1 2 tcp 1040 ------- 1 4.0 2.0 11 42
r 3.15248 1 2 tcp 1040 ------- 1 4.0 2.0 7 37
+ 3.15248 2 1 ack 40 ------- 1 2.0 4.0 5 47
- 3.15248 2 1 ack 40 ------- 1 2.0 4.0 5 47
r 3.1608 1 2 tcp 1040 ------- 1 4.0 2.0 8 38
+ 3.1608 2 1 ack 40 ------- 1 2.0 4.0 5 48
- 3.1608 2 1 ack 40 ------- 1 2.0 4.0 5 48
r 3.16528 3 1 tcp 1040 ------- 2 3.0 2.1 10 45
+ 3.16528 1 2 tcp 1040 ------- 2 3.0 2.1 10 45
- 3.16528 1 2 tcp 1040 ------- 2 3.0 2.1 10 45
r 3.16912 1 2 tcp 1040 ------- 1 4.0 2.0 9 39
+ 3.16912 2 1 ack 40 ------- 1 2.0 4.0 5 49
- 3.16912 2 1 ack 40 ------- 1 2.0 4.0 5 49
r 3.16944 3 1 tcp 1040 ------- 2 3.0 2.1 11 46
+ 3.16944 1 2 tcp 1040 ------- 2 3.0 2.1 11 46
- 3.1736 1 2 tcp 1040 ------- 2 3.0 2.1 11 46
r 3.17744 1 2 tcp 1040 ------- 1 4.0 2.0 11 42
+ 3.17744 2 1 ack 40 ------- 1 2.0 4.0 5 50
- 3.17744 2 1 ack 40 ------- 1 2.0 4.0 5 50
r 3.2528 2 1 ack 40 ------- 1 2.0 4.0 5 47
+ 3.2528 1 0 ack 40 ------- 1 2.0 4.0 5 47
- 3.2528 1 0 ack 40 ------- 1 2.0 4.0 5 47
r 3.26112 2 1 ack 40 ------- 1 2.0 4.0 5 48
+ 3.26112 1 0 ack 40 ------- 1 2.0 4.0 5 48
- 3.26112 1 0 ack 40 ------- 1 2.0 4.0 5 48
r 3.26944 2 1 ack 40 ------- 1 2.0 4.0 5 49
+ 3.26944 1 0 ack 40 ------- 1 2.0 4.0 5 49
- 3.26944 1 0 ack 40 ------- 1 2.0 4.0 5 49
r 3.2736 1 2 tcp 1040 ------- 2 3.0 2.1 10 45
+ 3.2736 2 1 ack 40 ------- 2 2.1 3.0 12 51
- 3.2736 2 1 ack 40 ------- 2 2.1 3.0 12 51
r 3.27776 2 1 ack 40 ------- 1 2.0 4.0 5 50
+ 3.27776 1 0 ack 40 ------- 1 2.0 4.0 5 50
- 3.27776 1 0 ack 40 ------- 1 2.0 4.0 5 50
r 3.28192 1 2 tcp 1040 ------- 2 3.0 2.1 11 46
+ 3.28192 2 1 ack 40 ------- 2 2.1 3.0 12 52
- 3.28192 2 1 ack 40 ------- 2 2.1 3.0 12 52
r 3.35296 1 0 ack 40 ------- 1 2.0 4.0 5 47
+ 3.35296 0 4 ack 40 ------- 1 2.0 4.0 5 47
- 3.35296 0 4 ack 40 ------- 1 2.0 4.0 5 47
r 3.36128 1 0 ack 40 ------- 1 2.0 4.0 5 48
+ 3.36128 0 4 ack 40 ------- 1 2.0 4.0 5 48
- 3.36128 0 4 ack 40 ------- 1 2.0 4.0 5 48
r 3.3696 1 0 ack 40 ------- 1 2.0 4.0 5 49
+ 3.3696 0 4 ack 40 ------- 1 2.0 4.0 5 49
- 3.3696 0 4 ack 40 ------- 1 2.0 4.0 5 49
r 3.37392 2 1 ack 40 ------- 2 2.1 3.0 12 51
+ 3.37392 1 3 ack 40 ------- 2 2.1 3.0 12 51
- 3.37392 1 3 ack 40 ------- 2 2.1 3.0 12 51
r 3.37792 1 0 ack 40 ------- 1 2.0 4.0 5 50
+ 3.37792 0 4 ack 40 ------- 1 2.0 4.0 5 50
- 3.37792 0 4 ack 40 ------- 1 2.0 4.0 5 50
r 3.38224 2 1 ack 40 ------- 2 2.1 3.0 12 52
+ 3.38224 1 3 ack 40 ------- 2 2.1 3.0 12 52
- 3.38224 1 3 ack 40 ------- 2 2.1 3.0 12 52
r 3.45312 0 4 ack 40 ------- 1 2.0 4.0 5 47
+ 3.45312 4 0 tcp 1040 ------- 1 4.0 2.0 13 53
- 3.45312 4 0 tcp 1040 ------- 1 4.0 2.0 13 53
r 3.46144 0 4 ack 40 ------- 1 2.0 4.0 5 48
+ 3.46144 4 0 tcp 1040 ------- 1 4.0 2.0 14 54
- 3.46144 4 0 tcp 1040 ------- 1 4.0 2.0 14 54
r 3.46976 0 4 ack 40 ------- 1 2.0 4.0 5 49
+ 3.46976 4 0 tcp 1040 ---A--- 1 4.0 2.0 6 55
- 3.46976 4 0 tcp 1040 ---A--- 1 4.0 2.0 6 55
r 3.47408 1 3 ack 40 ------- 2 2.1 3.0 12 51
+ 3.47408 3 1 tcp 1040 ------- 2 3.0 2.1 13 56
- 3.47408 3 1 tcp 1040 ------- 2 3.0 2.1 13 56
+ 3.47408 3 1 tcp 1040 ------- 2 3.0 2.1 14 57
+ 3.47408 3 1 tcp 1040 ------- 2 3.0 2.1 15 58
r 3.47808 0 4 ack 40 ------- 1 2.0 4.0 5 50
- 3.47824 3 1 tcp 1040 ------- 2 3.0 2.1 14 57
r 3.4824 1 3 ack 40 ------- 2 2.1 3.0 12 52
+ 3.4824 3 1 tcp 1040 ------- 2 3.0 2.1 16 59
- 3.4824 3 1 tcp 1040 ------- 2 3.0 2.1 15 58
- 3.48656 3 1 tcp 1040 ------- 2 3.0 2.1 16 59
r 3.55728 4 0 tcp 1040 ------- 1 4.0 2.0 13 53
+ 3.55728 0 1 tcp 1040 ------- 1 4.0 2.0 13 53
- 3.55728 0 1 tcp 1040 ------- 1 4.0 2.0 13 53
r 3.5656 4 0 tcp 1040 ------- 1 4.0 2.0 14 54
+ 3.5656 0 1 tcp 1040 ------- 1 4.0 2.0 14 54
- 3.5656 0 1 tcp 1040 ------- 1 4.0 2.0 14 54
r 3.57392 4 0 tcp 1040 ---A--- 1 4.0 2.0 6 55
+ 3.57392 0 1 tcp 1040 ---A--- 1 4.0 2.0 6 55
- 3.57392 0 1 tcp 1040 ---A--- 1 4.0 2.0 6 55
r 3.57824 3 1 tcp 1040 ------- 2 3.0 2.1 13 56
+ 3.57824 1 2 tcp 1040 ------- 2 3.0 2.1 13 56
- 3.57824 1 2 tcp 1040 ------- 2 3.0 2.1 13 56
r 3.5824 3 1 tcp 1040 ------- 2 3.0 2.1 14 57
+ 3.5824 1 2 tcp 1040 ------- 2 3.0 2.1 14 57
- 3.58656 1 2 tcp 1040 ------- 2 3.0 2.1 14 57
r 3.58656 3 1 tcp 1040 ------- 2 3.0 2.1 15 58
+ 3.58656 1 2 tcp 1040 ------- 2 3.0 2.1 15 58
r 3.59072 3 1 tcp 1040 ------- 2 3.0 2.1 16 59
+ 3.59072 1 2 tcp 1040 ------- 2 3.0 2.1 16 59
d 3.59072 1 2 tcp 1040 ------- 2 3.0 2.1 16 59
- 3.59488 1 2 tcp 1040 ------- 2 3.0 2.1 15 58
r 3.66144 0 1 tcp 1040 ------- 1 4.0 2.0 13 53
+ 3.66144 1 2 tcp 1040 ------- 1 4.0 2.0 13 53
- 3.66144 1 2 tcp 1040 ------- 1 4.0 2.0 13 53
r 3.66976 0 1 tcp 1040 ------- 1 4.0 2.0 14 54
+ 3.66976 1 2 tcp 1040 ------- 1 4.0 2.0 14 54
- 3.66976 1 2 tcp 1040 ------- 1 4.0 2.0 14 54
r 3.67808 0 1 tcp 1040 ---A--- 1 4.0 2.0 6 55
+ 3.67808 1 2 tcp 1040 ---A--- 1 4.0 2.0 6 55
- 3.67808 1 2 tcp 1040 ---A--- 1 4.0 2.0 6 55
r 3.68656 1 2 tcp 1040 ------- 2 3.0 2.1 13 56
+ 3.68656 2 1 ack 40 ------- 2 2.1 3.0 13 60
- 3.68656 2 1 ack 40 ------- 2 2.1 3.0 13 60
r 3.69488 1 2 tcp 1040 ------- 2 3.0 2.1 14 57
+ 3.69488 2 1 ack 40 ------- 2 2.1 3.0 14 61
- 3.69488 2 1 ack 40 ------- 2 2.1 3.0 14 61
r 3.7032 1 2 tcp 1040 ------- 2 3.0 2.1 15 58
+ 3.7032 2 1 ack 40 ------- 2 2.1 3.0 15 62
- 3.7032 2 1 ack 40 ------- 2 2.1 3.0 15 62
r 3.76976 1 2 tcp 1040 ------- 1 4.0 2.0 13 53
+ 3.76976 2 1 ack 40 ------- 1 2.0 4.0 5 63
- 3.76976 2 1 ack 40 ------- 1 2.0 4.0 5 63
r 3.77808 1 2 tcp 1040 ------- 1 4.0 2.0 14 54
+ 3.77808 2 1 ack 40 ------- 1 2.0 4.0 5 64
- 3.77808 2 1 ack 40 ------- 1 2.0 4.0 5 64
r 3.7864 1 2 tcp 1040 ---A--- 1 4.0 2.0 6 55
+ 3.7864 2 1 ack 40 ------- 1 2.0 4.0 9 65
- 3.7864 2 1 ack 40 ------- 1 2.0 4.0 9 65
r 3.78688 2 1 ack 40 ------- 2 2.1 3.0 13 60
+ 3.78688 1 3 ack 40 ------- 2 2.1 3.0 13 60
- 3.78688 1 3 ack 40 ------- 2 2.1 3.0 13 60
r 3.7952 2 1 ack 40 ------- 2 2.1 3.0 14 61
+ 3.7952 1 3 ack 40 ------- 2 2.1 3.0 14 61
- 3.7952 1 3 ack 40 ------- 2 2.1 3.0 14 61
r 3.80352 2 1 ack 40 ------- 2 2.1 3.0 15 62
+ 3.80352 1 3 ack 40 ------- 2 2.1 3.0 15 62
- 3.80352 1 3 ack 40 ------- 2 2.1 3.0 15 62
r 3.87008 2 1 ack 40 ------- 1 2.0 4.0 5 63
+ 3.87008 1 0 ack 40 ------- 1 2.0 4.0 5 63
- 3.87008 1 0 ack 40 ------- 1 2.0 4.0 5 63
r 3.8784 2 1 ack 40 ------- 1 2.0 4.0 5 64
+ 3.8784 1 0 ack 40 ------- 1 2.0 4.0 5 64
- 3.8784 1 0 ack 40 ------- 1 2.0 4.0 5 64
r 3.88672 2 1 ack 40 ------- 1 2.0 4.0 9 65
+ 3.88672 1 0 ack 40 ------- 1 2.0 4.0 9 65
- 3.88672 1 0 ack 40 ------- 1 2.0 4.0 9 65
r 3.88704 1 3 ack 40 ------- 2 2.1 3.0 13 60
r 3.89536 1 3 ack 40 ------- 2 2.1 3.0 14 61
+ 3.89536 3 1 tcp 1040 ------- 2 3.0 2.1 17 66
- 3.89536 3 1 tcp 1040 ------- 2 3.0 2.1 17 66
r 3.90368 1 3 ack 40 ------- 2 2.1 3.0 15 62
+ 3.90368 3 1 tcp 1040 ------- 2 3.0 2.1 18 67
- 3.90368 3 1 tcp 1040 ------- 2 3.0 2.1 18 67
r 3.97024 1 0 ack 40 ------- 1 2.0 4.0 5 63
+ 3.97024 0 4 ack 40 ------- 1 2.0 4.0 5 63
- 3.97024 0 4 ack 40 ------- 1 2.0 4.0 5 63
r 3.97856 1 0 ack 40 ------- 1 2.0 4.0 5 64
+ 3.97856 0 4 ack 40 ------- 1 2.0 4.0 5 64
- 3.97856 0 4 ack 40 ------- 1 2.0 4.0 5 64
r 3.98688 1 0 ack 40 ------- 1 2.0 4.0 9 65
+ 3.98688 0 4 ack 40 ------- 1 2.0 4.0 9 65
- 3.98688 0 4 ack 40 ------- 1 2.0 4.0 9 65
r 3.99952 3 1 tcp 1040 ------- 2 3.0 2.1 17 66
+ 3.99952 1 2 tcp 1040 ------- 2 3.0 2.1 17 66
- 3.99952 1 2 tcp 1040 ------- 2 3.0 2.1 17 66
r 4.00784 3 1 tcp 1040 ------- 2 3.0 2.1 18 67
+ 4.00784 1 2 tcp 1040 ------- 2 3.0 2.1 18 67
- 4.00784 1 2 tcp 1040 ------- 2 3.0 2.1 18 67
r 4.0704 0 4 ack 40 ------- 1 2.0 4.0 5 63
r 4.07872 0 4 ack 40 ------- 1 2.0 4.0 5 64
r 4.08704 0 4 ack 40 ------- 1 2.0 4.0 9 65
+ 4.08704 4 0 tcp 1040 ------- 1 4.0 2.0 10 68
- 4.08704 4 0 tcp 1040 ------- 1 4.0 2.0 10 68
+ 4.08704 4 0 tcp 1040 ------- 1 4.0 2.0 11 69
- 4.0912 4 0 tcp 1040 ------- 1 4.0 2.0 11 69
r 4.10784 1 2 tcp 1040 ------- 2 3.0 2.1 17 66
+ 4.10784 2 1 ack 40 ------- 2 2.1 3.0 15 70
- 4.10784 2 1 ack 40 ------- 2 2.1 3.0 15 70
r 4.11616 1 2 tcp 1040 ------- 2 3.0 2.1 18 67
+ 4.11616 2 1 ack 40 ------- 2 2.1 3.0 15 71
- 4.11616 2 1 ack 40 ------- 2 2.1 3.0 15 71
r 4.1912 4 0 tcp 1040 ------- 1 4.0 2.0 10 68
+ 4.1912 0 1 tcp 1040 ------- 1 4.0 2.0 10 68
- 4.1912 0 1 tcp 1040 ------- 1 4.0 2.0 10 68
r 4.19536 4 0 tcp 1040 ------- 1 4.0 2.0 11 69
+ 4.19536 0 1 tcp 1040 ------- 1 4.0 2.0 11 69
- 4.19536 0 1 tcp 1040 ------- 1 4.0 2.0 11 69
r 4.20816 2 1 ack 40 ------- 2 2.1 3.0 15 70
+ 4.20816 1 3 ack 40 ------- 2 2.1 3.0 15 70
- 4.20816 1 3 ack 40 ------- 2 2.1 3.0 15 70
r 4.21648 2 1 ack 40 ------- 2 2.1 3.0 15 71
+ 4.21648 1 3 ack 40 ------- 2 2.1 3.0 15 71
- 4.21648 1 3 ack 40 ------- 2 2.1 3.0 15 71
r 4.29536 0 1 tcp 1040 ------- 1 4.0 2.0 10 68
+ 4.29536 1 2 tcp 1040 ------- 1 4.0 2.0 10 68
- 4.29536 1 2 tcp 1040 ------- 1 4.0 2.0 10 68
r 4.29952 0 1 tcp 1040 ------- 1 4.0 2.0 11 69
+ 4.29952 1 2 tcp 1040 ------- 1 4.0 2.0 11 69
- 4.30368 1 2 tcp 1040 ------- 1 4.0 2.0 11 69
r 4.30832 1 3 ack 40 ------- 2 2.1 3.0 15 70
+ 4.30832 3 1 tcp 1040 ------- 2 3.0 2.1 19 72
- 4.30832 3 1 tcp 1040 ------- 2 3.0 2.1 19 72
r 4.31664 1 3 ack 40 ------- 2 2.1 3.0 15 71
+ 4.31664 3 1 tcp 1040 ------- 2 3.0 2.1 20 73
- 4.31664 3 1 tcp 1040 ------- 2 3.0 2.1 20 73
r 4.40368 1 2 tcp 1040 ------- 1 4.0 2.0 10 68
+ 4.40368 2 1 ack 40 ------- 1 2.0 4.0 11 74
- 4.40368 2 1 ack 40 ------- 1 2.0 4.0 11 74
r 4.412 1 2 tcp 1040 ------- 1 4.0 2.0 11 69
+ 4.412 2 1 ack 40 ------- 1 2.0 4.0 11 75
- 4.412 2 1 ack 40 ------- 1 2.0 4.0 11 75
r 4.41248 3 1 tcp 1040 ------- 2 3.0 2.1 19 72
+ 4.41248 1 2 tcp 1040 ------- 2 3.0 2.1 19 72
- 4.41248 1 2 tcp 1040 ------- 2 3.0 2.1 19 72
r 4.4208 3 1 tcp 1040 ------- 2 3.0 2.1 20 73
+ 4.4208 1 2 tcp 1040 ------- 2 3.0 2.1 20 73
- 4.4208 1 2 tcp 1040 ------- 2 3.0 2.1 20 73
r 4.504 2 1 ack 40 ------- 1 2.0 4.0 11 74
+ 4.504 1 0 ack 40 ------- 1 2.0 4.0 11 74
- 4.504 1 0 ack 40 ------- 1 2.0 4.0 11 74
r 4.51232 2 1 ack 40 ------- 1 2.0 4.0 11 75
+ 4.51232 1 0 ack 40 ------- 1 2.0 4.0 11 75
- 4.51232 1 0 ack 40 ------- 1 2.0 4.0 11 75
r 4.5208 1 2 tcp 1040 ------- 2 3.0 2.1 19 72
+ 4.5208 2 1 ack 40 ------- 2 2.1 3.0 15 76
- 4.5208 2 1 ack 40 ------- 2 2.1 3.0 15 76
r 4.52912 1 2 tcp 1040 ------- 2 3.0 2.1 20 73
+ 4.52912 2 1 ack 40 ------- 2 2.1 3.0 15 77
- 4.52912 2 1 ack 40 ------- 2 2.1 3.0 15 77
r 4.60416 1 0 ack 40 ------- 1 2.0 4.0 11 74
+ 4.60416 0 4 ack 40 ------- 1 2.0 4.0 11 74
- 4.60416 0 4 ack 40 ------- 1 2.0 4.0 11 74
r 4.61248 1 0 ack 40 ------- 1 2.0 4.0 11 75
+ 4.61248 0 4 ack 40 ------- 1 2.0 4.0 11 75
- 4.61248 0 4 ack 40 ------- 1 2.0 4.0 11 75
r 4.62112 2 1 ack 40 ------- 2 2.1 3.0 15 76
+ 4.62112 1 3 ack 40 ------- 2 2.1 3.0 15 76
- 4.62112 1 3 ack 40 ------- 2 2.1 3.0 15 76
r 4.62944 2 1 ack 40 ------- 2 2.1 3.0 15 77
+ 4.62944 1 3 ack 40 ------- 2 2.1 3.0 15 77
- 4.62944 1 3 ack 40 ------- 2 2.1 3.0 15 77
+ 4.67368 3 1 tcp 1040 ---A--- 2 3.0 2.1 16 78
- 4.67368 3 1 tcp 1040 ---A--- 2 3.0 2.1 16 78
r 4.70432 0 4 ack 40 ------- 1 2.0 4.0 11 74
+ 4.70432 4 0 tcp 1040 ------- 1 4.0 2.0 12 79
- 4.70432 4 0 tcp 1040 ------- 1 4.0 2.0 12 79
+ 4.70432 4 0 tcp 1040 ------- 1 4.0 2.0 13 80
+ 4.70432 4 0 tcp 1040 ------- 1 4.0 2.0 14 81
- 4.70848 4 0 tcp 1040 ------- 1 4.0 2.0 13 80
- 4.71264 4 0 tcp 1040 ------- 1 4.0 2.0 14 81
r 4.71264 0 4 ack 40 ------- 1 2.0 4.0 11 75
+ 4.71264 4 0 tcp 1040 ------- 1 4.0 2.0 15 82
- 4.7168 4 0 tcp 1040 ------- 1 4.0 2.0 15 82
r 4.72128 1 3 ack 40 ------- 2 2.1 3.0 15 76
r 4.7296 1 3 ack 40 ------- 2 2.1 3.0 15 77
r 4.77784 3 1 tcp 1040 ---A--- 2 3.0 2.1 16 78
+ 4.77784 1 2 tcp 1040 ---A--- 2 3.0 2.1 16 78
- 4.77784 1 2 tcp 1040 ---A--- 2 3.0 2.1 16 78
r 4.80848 4 0 tcp 1040 ------- 1 4.0 2.0 12 79
+ 4.80848 0 1 tcp 1040 ------- 1 4.0 2.0 12 79
- 4.80848 0 1 tcp 1040 ------- 1 4.0 2.0 12 79
r 4.81264 4 0 tcp 1040 ------- 1 4.0 2.0 13 80
+ 4.81264 0 1 tcp 1040 ------- 1 4.0 2.0 13 80
- 4.81264 0 1 tcp 1040 ------- 1 4.0 2.0 13 80
r 4.8168 4 0 tcp 1040 ------- 1 4.0 2.0 14 81
+ 4.8168 0 1 tcp 1040 ------- 1 4.0 2.0 14 81
- 4.8168 0 1 tcp 1040 ------- 1 4.0 2.0 14 81
r 4.82096 4 0 tcp 1040 ------- 1 4.0 2.0 15 82
+ 4.82096 0 1 tcp 1040 ------- 1 4.0 2.0 15 82
- 4.82096 0 1 tcp 1040 ------- 1 4.0 2.0 15 82
r 4.88616 1 2 tcp 1040 ---A--- 2 3.0 2.1 16 78
+ 4.88616 2 1 ack 40 ------- 2 2.1 3.0 20 83
- 4.88616 2 1 ack 40 ------- 2 2.1 3.0 20 83
r 4.91264 0 1 tcp 1040 ------- 1 4.0 2.0 12 79
+ 4.91264 1 2 tcp 1040 ------- 1 4.0 2.0 12 79
- 4.91264 1 2 tcp 1040 ------- 1 4.0 2.0 12 79
r 4.9168 0 1 tcp 1040 ------- 1 4.0 2.0 13 80
+ 4.9168 1 2 tcp 1040 ------- 1 4.0 2.0 13 80
r 4.92096 0 1 tcp 1040 ------- 1 4.0 2.0 14 81
+ 4.92096 1 2 tcp 1040 ------- 1 4.0 2.0 14 81
d 4.92096 1 2 tcp 1040 ------- 1 4.0 2.0 14 81
- 4.92096 1 2 tcp 1040 ------- 1 4.0 2.0 13 80
r 4.92512 0 1 tcp 1040 ------- 1 4.0 2.0 15 82
+ 4.92512 1 2 tcp 1040 ------- 1 4.0 2.0 15 82
- 4.92928 1 2 tcp 1040 ------- 1 4.0 2.0 15 82
r 4.98648 2 1 ack 40 ------- 2 2.1 3.0 20 83
+ 4.98648 1 3 ack 40 ------- 2 2.1 3.0 20 83
- 4.98648 1 3 ack 40 ------- 2 2.1 3.0 20 83
r 5.02096 1 2 tcp 1040 ------- 1 4.0 2.0 12 79
+ 5.02096 2 1 ack 40 ------- 1 2.0 4.0 14 84
- 5.02096 2 1 ack 40 ------- 1 2.0 4.0 14 84
r 5.02928 1 2 tcp 1040 ------- 1 4.0 2.0 13 80
+ 5.02928 2 1 ack 40 ------- 1 2.0 4.0 14 85
- 5.02928 2 1 ack 40 ------- 1 2.0 4.0 14 85
r 5.0376 1 2 tcp 1040 ------- 1 4.0 2.0 15 82
+ 5.0376 2 1 ack 40 ------- 1 2.0 4.0 15 86
- 5.0376 2 1 ack 40 ------- 1 2.0 4.0 15 86
r 5.08664 1 3 ack 40 ------- 2 2.1 3.0 20 83
+ 5.08664 3 1 tcp 1040 ------- 2 3.0 2.1 21 87
- 5.08664 3 1 tcp 1040 ------- 2 3.0 2.1 21 87
+ 5.08664 3 1 tcp 1040 ------- 2 3.0 2.1 22 88
- 5.0908 3 1 tcp 1040 ------- 2 3.0 2.1 22 88
r 5.12128 2 1 ack 40 ------- 1 2.0 4.0 14 84
+ 5.12128 1 0 ack 40 ------- 1 2.0 4.0 14 84
- 5.12128 1 0 ack 40 ------- 1 2.0 4.0 14 84
r 5.1296 2 1 ack 40 ------- 1 2.0 4.0 14 85
+ 5.1296 1 0 ack 40 ------- 1 2.0 4.0 14 85
- 5.1296 1 0 ack 40 ------- 1 2.0 4.0 14 85
r 5.13792 2 1 ack 40 ------- 1 2.0 4.0 15 86
+ 5.13792 1 0 ack 40 ------- 1 2.0 4.0 15 86
- 5.13792 1 0 ack 40 ------- 1 2.0 4.0 15 86
r 5.1908 3 1 tcp 1040 ------- 2 3.0 2.1 21 87
+ 5.1908 1 2 tcp 1040 ------- 2 3.0 2.1 21 87
- 5.1908 1 2 tcp 1040 ------- 2 3.0 2.1 21 87
r 5.19496 3 1 tcp 1040 ------- 2 3.0 2.1 22 88
+ 5.19496 1 2 tcp 1040 ------- 2 3.0 2.1 22 88
- 5.19912 1 2 tcp 1040 ------- 2 3.0 2.1 22 88
r 5.22144 1 0 ack 40 ------- 1 2.0 4.0 14 84
+ 5.22144 0 4 ack 40 ------- 1 2.0 4.0 14 84
- 5.22144 0 4 ack 40 ------- 1 2.0 4.0 14 84
r 5.22976 1 0 ack 40 ------- 1 2.0 4.0 14 85
+ 5.22976 0 4 ack 40 ------- 1 2.0 4.0 14 85
- 5.22976 0 4 ack 40 ------- 1 2.0 4.0 14 85
r 5.23808 1 0 ack 40 ------- 1 2.0 4.0 15 86
+ 5.23808 0 4 ack 40 ------- 1 2.0 4.0 15 86
- 5.23808 0 4 ack 40 ------- 1 2.0 4.0 15 86
r 5.29912 1 2 tcp 1040 ------- 2 3.0 2.1 21 87
+ 5.29912 2 1 ack 40 ------- 2 2.1 3.0 21 89
- 5.29912 2 1 ack 40 ------- 2 2.1 3.0 21 89
r 5.30744 1 2 tcp 1040 ------- 2 3.0 2.1 22 88
+ 5.30744 2 1 ack 40 ------- 2 2.1 3.0 22 90
- 5.30744 2 1 ack 40 ------- 2 2.1 3.0 22 90
r 5.3216 0 4 ack 40 ------- 1 2.0 4.0 14 84
+ 5.3216 4 0 tcp 1040 ------- 1 4.0 2.0 16 91
- 5.3216 4 0 tcp 1040 ------- 1 4.0 2.0 16 91
+ 5.3216 4 0 tcp 1040 ------- 1 4.0 2.0 17 92
- 5.32576 4 0 tcp 1040 ------- 1 4.0 2.0 17 92
r 5.32992 0 4 ack 40 ------- 1 2.0 4.0 14 85
+ 5.32992 4 0 tcp 1040 ------- 1 4.0 2.0 18 93
- 5.32992 4 0 tcp 1040 ------- 1 4.0 2.0 18 93
r 5.33824 0 4 ack 40 ------- 1 2.0 4.0 15 86
r 5.39944 2 1 ack 40 ------- 2 2.1 3.0 21 89
+ 5.39944 1 3 ack 40 ------- 2 2.1 3.0 21 89
- 5.39944 1 3 ack 40 ------- 2 2.1 3.0 21 89
r 5.40776 2 1 ack 40 ------- 2 2.1 3.0 22 90
+ 5.40776 1 3 ack 40 ------- 2 2.1 3.0 22 90
- 5.40776 1 3 ack 40 ------- 2 2.1 3.0 22 90
r 5.42576 4 0 tcp 1040 ------- 1 4.0 2.0 16 91